
     Program PWSCF v.6.4.1 starts on  5Jun2021 at  4:57:49 

     This program is part of the open-source Quantum ESPRESSO suite
     for quantum simulation of materials; please cite
         "P. Giannozzi et al., J. Phys.:Condens. Matter 21 395502 (2009);
         "P. Giannozzi et al., J. Phys.:Condens. Matter 29 465901 (2017);
          URL http://www.quantum-espresso.org", 
     in publications or presentations arising from this work. More details at
     http://www.quantum-espresso.org/quote

     Parallel version (MPI & OpenMP), running on       4 processor cores
     Number of MPI processes:                 1
     Threads/MPI process:                     4

     MPI processes distributed on     1 nodes
     Waiting for input...
     Reading input from standard input

     Current dimensions of program PWSCF are:
     Max number of different atomic species (ntypx) = 10
     Max number of k-points (npk) =  40000
     Max angular momentum in pseudopotentials (lmaxx) =  3
               file O.pbe-rrkjus.UPF: wavefunction(s)  2S renormalized

     Subspace diagonalization in iterative solution of the eigenvalue problem:
     a serial algorithm will be used

     Found symmetry operation: I + (  0.2500  0.2500  0.2500)
     This is a supercell, fractional translations are disabled

     G-vector sticks info
     --------------------
     sticks:   dense  smooth     PW     G-vecs:    dense   smooth      PW
     Sum        3265    2285    641               354483   207445   30399



     bravais-lattice index     =            6
     lattice parameter (alat)  =      14.3241  a.u.
     unit-cell volume          =    7421.2481 (a.u.)^3
     number of atoms/cell      =           96
     number of atomic types    =            2
     number of electrons       =       768.00
     number of Kohn-Sham states=          461
     kinetic-energy cutoff     =      35.0000  Ry
     charge density cutoff     =     200.0000  Ry
     convergence threshold     =      1.0E-06
     mixing beta               =       0.4000
     number of iterations used =            8  plain     mixing
     Exchange-correlation      =  SLA  PW   PBE  PBE ( 1  4  3  4 0 0)

     celldm(1)=  14.324124  celldm(2)=   0.000000  celldm(3)=   2.525066
     celldm(4)=   0.000000  celldm(5)=   0.000000  celldm(6)=   0.000000

     crystal axes: (cart. coord. in units of alat)
               a(1) = (   1.000000   0.000000   0.000000 )  
               a(2) = (   0.000000   1.000000   0.000000 )  
               a(3) = (   0.000000   0.000000   2.525066 )  

     reciprocal axes: (cart. coord. in units 2 pi/alat)
               b(1) = (  1.000000  0.000000  0.000000 )  
               b(2) = (  0.000000  1.000000  0.000000 )  
               b(3) = (  0.000000  0.000000  0.396029 )  


     PseudoPot. # 1 for Ti read from file:
     ./pseudo\Ti.pbe-sp-van_ak.UPF
     MD5 check sum: 2e7572f3128e7cf134dafc4105d62c0f
     Pseudo is Ultrasoft, Zval = 12.0
     Generated by new atomic code, or converted to UPF format
     Using radial grid of  851 points,  6 beta functions with: 
                l(1) =   0
                l(2) =   0
                l(3) =   1
                l(4) =   1
                l(5) =   2
                l(6) =   2
     Q(r) pseudized with  8 coefficients,  rinner =    1.000   1.000   1.000
                                                       1.000   1.000

     PseudoPot. # 2 for O  read from file:
     ./pseudo\O.pbe-rrkjus.UPF
     MD5 check sum: a4b6f5047f549466a921003d899c5518
     Pseudo is Ultrasoft, Zval =  6.0
     Generated by new atomic code, or converted to UPF format
     Using radial grid of 1269 points,  4 beta functions with: 
                l(1) =   0
                l(2) =   0
                l(3) =   1
                l(4) =   1
     Q(r) pseudized with 0 coefficients 


     atomic species   valence    mass     pseudopotential
        Ti            12.00    47.86700     Ti( 1.00)
        O              6.00    15.99940     O ( 1.00)

     Starting magnetic structure 
     atomic species   magnetization
        Ti           0.200
        O            0.000

      8 Sym. Ops. (no inversion) found



   Cartesian axes

     site n.     atom                  positions (alat units)
         1           Ti  tau(   1) = (   0.0000000   0.0000000   0.0000000  )
         2           Ti  tau(   2) = (   0.2500000   0.2500000   0.6312665  )
         3           Ti  tau(   3) = (   0.0000000   0.2500000   0.3156332  )
         4           Ti  tau(   4) = (   0.2500000   0.0000000   0.9468997  )
         5           Ti  tau(   5) = (   0.0000000   0.0000000   1.2625330  )
         6           Ti  tau(   6) = (   0.2500000   0.2500000   1.8937993  )
         7           Ti  tau(   7) = (   0.0000000   0.2500000   1.5781661  )
         8           Ti  tau(   8) = (   0.2500000   0.0000000   2.2094326  )
         9           Ti  tau(   9) = (   0.0000000   0.5000000   0.0000000  )
        10           Ti  tau(  10) = (   0.2500000   0.7500000   0.6312665  )
        11           Ti  tau(  11) = (   0.5000000   0.2500000   0.3156332  )
        12           Ti  tau(  12) = (   0.7500000   0.0000000   0.9468997  )
        13           Ti  tau(  13) = (   0.2500000   0.5000000   0.9468997  )
        14           Ti  tau(  14) = (   0.0000000   0.7500000   0.3156332  )
        15           Ti  tau(  15) = (   0.7500000   0.2500000   0.6312665  )
        16           Ti  tau(  16) = (   0.5000000   0.0000000   0.0000000  )
        17           Ti  tau(  17) = (   0.0000000   0.5000000   1.2625330  )
        18           Ti  tau(  18) = (   0.2500000   0.7500000   1.8937993  )
        19           Ti  tau(  19) = (   0.5000000   0.2500000   1.5781661  )
        20           Ti  tau(  20) = (   0.7500000   0.0000000   2.2094326  )
        21           Ti  tau(  21) = (   0.2500000   0.5000000   2.2094326  )
        22           Ti  tau(  22) = (   0.0000000   0.7500000   1.5781661  )
        23           Ti  tau(  23) = (   0.7500000   0.2500000   1.8937993  )
        24           Ti  tau(  24) = (   0.5000000   0.0000000   1.2625330  )
        25           Ti  tau(  25) = (   0.5000000   0.5000000   0.0000000  )
        26           Ti  tau(  26) = (   0.7500000   0.7500000   0.6312665  )
        27           Ti  tau(  27) = (   0.5000000   0.7500000   0.3156332  )
        28           Ti  tau(  28) = (   0.7500000   0.5000000   0.9468997  )
        29           Ti  tau(  29) = (   0.5000000   0.5000000   1.2625330  )
        30           Ti  tau(  30) = (   0.7500000   0.7500000   1.8937993  )
        31           Ti  tau(  31) = (   0.5000000   0.7500000   1.5781661  )
        32           Ti  tau(  32) = (   0.7500000   0.5000000   2.2094326  )
        33           O   tau(  33) = (   0.0000000   0.0000000   0.2525066  )
        34           O   tau(  34) = (   0.2500000   0.2500000   0.8837731  )
        35           O   tau(  35) = (   0.0000000   0.2500000   0.5681398  )
        36           O   tau(  36) = (   0.2500000   0.0000000   1.1994063  )
        37           O   tau(  37) = (   0.2500000   0.0000000   0.6943931  )
        38           O   tau(  38) = (   0.0000000   0.2500000   0.0631266  )
        39           O   tau(  39) = (   0.2500000   0.2500000   0.3787599  )
        40           O   tau(  40) = (   0.0000000   0.0000000   2.2725592  )
        41           O   tau(  41) = (   0.0000000   0.0000000   1.5150394  )
        42           O   tau(  42) = (   0.2500000   0.2500000   2.1463059  )
        43           O   tau(  43) = (   0.0000000   0.2500000   1.8306727  )
        44           O   tau(  44) = (   0.2500000   0.0000000   2.4619392  )
        45           O   tau(  45) = (   0.2500000   0.0000000   1.9569260  )
        46           O   tau(  46) = (   0.0000000   0.2500000   1.3256595  )
        47           O   tau(  47) = (   0.2500000   0.2500000   1.6412927  )
        48           O   tau(  48) = (   0.0000000   0.0000000   1.0100264  )
        49           O   tau(  49) = (   0.0000000   0.5000000   0.2525066  )
        50           O   tau(  50) = (   0.2500000   0.7500000   0.8837731  )
        51           O   tau(  51) = (   0.5000000   0.2500000   0.5681398  )
        52           O   tau(  52) = (   0.7500000   0.0000000   1.1994063  )
        53           O   tau(  53) = (   0.2500000   0.5000000   0.6943931  )
        54           O   tau(  54) = (   0.0000000   0.7500000   0.0631266  )
        55           O   tau(  55) = (   0.7500000   0.2500000   0.3787599  )
        56           O   tau(  56) = (   0.5000000   0.0000000   2.2725592  )
        57           O   tau(  57) = (   0.0000000   0.5000000   1.5150394  )
        58           O   tau(  58) = (   0.2500000   0.7500000   2.1463059  )
        59           O   tau(  59) = (   0.5000000   0.2500000   1.8306727  )
        60           O   tau(  60) = (   0.7500000   0.0000000   2.4619392  )
        61           O   tau(  61) = (   0.2500000   0.5000000   1.9569260  )
        62           O   tau(  62) = (   0.0000000   0.7500000   1.3256595  )
        63           O   tau(  63) = (   0.7500000   0.2500000   1.6412927  )
        64           O   tau(  64) = (   0.5000000   0.0000000   1.0100264  )
        65           O   tau(  65) = (   0.5000000   0.0000000   0.2525066  )
        66           O   tau(  66) = (   0.7500000   0.2500000   0.8837731  )
        67           O   tau(  67) = (   0.0000000   0.7500000   0.5681398  )
        68           O   tau(  68) = (   0.2500000   0.5000000   1.1994063  )
        69           O   tau(  69) = (   0.7500000   0.0000000   0.6943931  )
        70           O   tau(  70) = (   0.5000000   0.2500000   0.0631266  )
        71           O   tau(  71) = (   0.2500000   0.7500000   0.3787599  )
        72           O   tau(  72) = (   0.0000000   0.5000000   2.2725592  )
        73           O   tau(  73) = (   0.5000000   0.0000000   1.5150394  )
        74           O   tau(  74) = (   0.7500000   0.2500000   2.1463059  )
        75           O   tau(  75) = (   0.0000000   0.7500000   1.8306727  )
        76           O   tau(  76) = (   0.2500000   0.5000000   2.4619392  )
        77           O   tau(  77) = (   0.7500000   0.0000000   1.9569260  )
        78           O   tau(  78) = (   0.5000000   0.2500000   1.3256595  )
        79           O   tau(  79) = (   0.2500000   0.7500000   1.6412927  )
        80           O   tau(  80) = (   0.0000000   0.5000000   1.0100264  )
        81           O   tau(  81) = (   0.5000000   0.5000000   0.2525066  )
        82           O   tau(  82) = (   0.7500000   0.7500000   0.8837731  )
        83           O   tau(  83) = (   0.5000000   0.7500000   0.5681398  )
        84           O   tau(  84) = (   0.7500000   0.5000000   1.1994063  )
        85           O   tau(  85) = (   0.7500000   0.5000000   0.6943931  )
        86           O   tau(  86) = (   0.5000000   0.7500000   0.0631266  )
        87           O   tau(  87) = (   0.7500000   0.7500000   0.3787599  )
        88           O   tau(  88) = (   0.5000000   0.5000000   2.2725592  )
        89           O   tau(  89) = (   0.5000000   0.5000000   1.5150394  )
        90           O   tau(  90) = (   0.7500000   0.7500000   2.1463059  )
        91           O   tau(  91) = (   0.5000000   0.7500000   1.8306727  )
        92           O   tau(  92) = (   0.7500000   0.5000000   2.4619392  )
        93           O   tau(  93) = (   0.7500000   0.5000000   1.9569260  )
        94           O   tau(  94) = (   0.5000000   0.7500000   1.3256595  )
        95           O   tau(  95) = (   0.7500000   0.7500000   1.6412927  )
        96           O   tau(  96) = (   0.5000000   0.5000000   1.0100264  )

     number of k points=    18  gaussian smearing, width (Ry)=  0.0100
                       cart. coord. in units 2pi/alat
        k(    1) = (   0.0000000   0.0000000   0.0000000), wk =   0.0156250
        k(    2) = (   0.0000000   0.0000000   0.0990073), wk =   0.0312500
        k(    3) = (   0.0000000   0.0000000  -0.1980146), wk =   0.0156250
        k(    4) = (   0.0000000   0.2500000   0.0000000), wk =   0.0625000
        k(    5) = (   0.0000000   0.2500000   0.0990073), wk =   0.1250000
        k(    6) = (   0.0000000   0.2500000  -0.1980146), wk =   0.0625000
        k(    7) = (   0.0000000  -0.5000000   0.0000000), wk =   0.0312500
        k(    8) = (   0.0000000  -0.5000000   0.0990073), wk =   0.0625000
        k(    9) = (   0.0000000  -0.5000000  -0.1980146), wk =   0.0312500
        k(   10) = (   0.2500000   0.2500000   0.0000000), wk =   0.0625000
        k(   11) = (   0.2500000   0.2500000   0.0990073), wk =   0.1250000
        k(   12) = (   0.2500000   0.2500000  -0.1980146), wk =   0.0625000
        k(   13) = (   0.2500000  -0.5000000   0.0000000), wk =   0.0625000
        k(   14) = (   0.2500000  -0.5000000   0.0990073), wk =   0.1250000
        k(   15) = (   0.2500000  -0.5000000  -0.1980146), wk =   0.0625000
        k(   16) = (  -0.5000000  -0.5000000   0.0000000), wk =   0.0156250
        k(   17) = (  -0.5000000  -0.5000000   0.0990073), wk =   0.0312500
        k(   18) = (  -0.5000000  -0.5000000  -0.1980146), wk =   0.0156250

     Dense  grid:   354483 G-vectors     FFT dimensions: (  72,  72, 180)

     Smooth grid:   207445 G-vectors     FFT dimensions: (  54,  54, 144)

     Estimated max dynamical RAM per process >       9.68 GB
     Generating pointlists ...
     new r_m :   0.1042 (alat units)  1.4920 (a.u.) for type    1
     new r_m :   0.1042 (alat units)  1.4920 (a.u.) for type    2

     Initial potential from superposition of free atoms

     starting charge  735.99850, renormalised to  768.00000
     Starting wfcs are  576 randomized atomic wfcs

     total cpu time spent up to now is     1055.5 secs

     Self-consistent Calculation

     iteration #  1     ecut=    35.00 Ry     beta= 0.40
     Davidson diagonalization with overlap
     ethr =  1.00E-02,  avg # of iterations =  3.0

     total cpu time spent up to now is     4217.3 secs

     total energy              =   -5778.39508531 Ry
     Harris-Foulkes estimate   =   -5788.84460765 Ry
     estimated scf accuracy    <      23.86696970 Ry

     total magnetization       =    -0.00 Bohr mag/cell
     absolute magnetization    =     9.62 Bohr mag/cell

     iteration #  2     ecut=    35.00 Ry     beta= 0.40
     Davidson diagonalization with overlap
     ethr =  3.11E-03,  avg # of iterations =  4.0

     total cpu time spent up to now is     7909.4 secs

     total energy              =   -5782.84536404 Ry
     Harris-Foulkes estimate   =   -5788.31215711 Ry
     estimated scf accuracy    <      17.53143809 Ry

     total magnetization       =     0.15 Bohr mag/cell
     absolute magnetization    =    21.69 Bohr mag/cell

     iteration #  3     ecut=    35.00 Ry     beta= 0.40
     Davidson diagonalization with overlap
     ethr =  2.28E-03,  avg # of iterations =  3.3

     total cpu time spent up to now is    10840.6 secs

     total energy              =   -5786.55589471 Ry
     Harris-Foulkes estimate   =   -5786.22572566 Ry
     estimated scf accuracy    <       1.35836653 Ry

     total magnetization       =    -0.00 Bohr mag/cell
     absolute magnetization    =     6.61 Bohr mag/cell

     iteration #  4     ecut=    35.00 Ry     beta= 0.40
     Davidson diagonalization with overlap
     ethr =  1.77E-04,  avg # of iterations =  3.4

     total cpu time spent up to now is    14022.7 secs

     total energy              =   -5786.90110557 Ry
     Harris-Foulkes estimate   =   -5786.90761369 Ry
     estimated scf accuracy    <       0.09609090 Ry

     total magnetization       =    -0.00 Bohr mag/cell
     absolute magnetization    =     2.30 Bohr mag/cell

     iteration #  5     ecut=    35.00 Ry     beta= 0.40
     Davidson diagonalization with overlap
     ethr =  1.25E-05,  avg # of iterations =  2.8

     total cpu time spent up to now is    17074.0 secs

     total energy              =   -5786.89818020 Ry
     Harris-Foulkes estimate   =   -5786.91440319 Ry
     estimated scf accuracy    <       0.03885013 Ry

     total magnetization       =     0.00 Bohr mag/cell
     absolute magnetization    =     2.11 Bohr mag/cell

     iteration #  6     ecut=    35.00 Ry     beta= 0.40
     Davidson diagonalization with overlap
     ethr =  5.06E-06,  avg # of iterations =  6.8

     total cpu time spent up to now is    21383.0 secs

     total energy              =   -5786.91177722 Ry
     Harris-Foulkes estimate   =   -5786.91450754 Ry
     estimated scf accuracy    <       0.01599462 Ry

     total magnetization       =     0.00 Bohr mag/cell
     absolute magnetization    =     1.01 Bohr mag/cell

     iteration #  7     ecut=    35.00 Ry     beta= 0.40
     Davidson diagonalization with overlap
     ethr =  2.08E-06,  avg # of iterations =  1.2

     total cpu time spent up to now is    23615.1 secs

     total energy              =   -5786.91153264 Ry
     Harris-Foulkes estimate   =   -5786.91238266 Ry
     estimated scf accuracy    <       0.00559395 Ry

     total magnetization       =    -0.00 Bohr mag/cell
     absolute magnetization    =     0.85 Bohr mag/cell

     iteration #  8     ecut=    35.00 Ry     beta= 0.40
     Davidson diagonalization with overlap
     ethr =  7.28E-07,  avg # of iterations =  3.4

     total cpu time spent up to now is    26644.8 secs

     total energy              =   -5786.91270289 Ry
     Harris-Foulkes estimate   =   -5786.91256097 Ry
     estimated scf accuracy    <       0.00055182 Ry

     total magnetization       =    -0.00 Bohr mag/cell
     absolute magnetization    =     0.58 Bohr mag/cell

     iteration #  9     ecut=    35.00 Ry     beta= 0.40
     Davidson diagonalization with overlap
     ethr =  7.19E-08,  avg # of iterations =  4.7

     total cpu time spent up to now is    30490.1 secs

     total energy              =   -5786.91305475 Ry
     Harris-Foulkes estimate   =   -5786.91321348 Ry
     estimated scf accuracy    <       0.00112237 Ry

     total magnetization       =     0.00 Bohr mag/cell
     absolute magnetization    =     0.09 Bohr mag/cell

     iteration # 10     ecut=    35.00 Ry     beta= 0.40
     Davidson diagonalization with overlap
     ethr =  7.19E-08,  avg # of iterations =  1.4

     total cpu time spent up to now is    32733.1 secs

     total energy              =   -5786.91284725 Ry
     Harris-Foulkes estimate   =   -5786.91308194 Ry
     estimated scf accuracy    <       0.00054011 Ry

     total magnetization       =     0.00 Bohr mag/cell
     absolute magnetization    =     0.05 Bohr mag/cell

     iteration # 11     ecut=    35.00 Ry     beta= 0.40
     Davidson diagonalization with overlap
     ethr =  7.03E-08,  avg # of iterations =  3.3

     total cpu time spent up to now is    35652.0 secs

     total energy              =   -5786.91298881 Ry
     Harris-Foulkes estimate   =   -5786.91302710 Ry
     estimated scf accuracy    <       0.00011110 Ry

     total magnetization       =    -0.00 Bohr mag/cell
     absolute magnetization    =     0.09 Bohr mag/cell

     iteration # 12     ecut=    35.00 Ry     beta= 0.40
     Davidson diagonalization with overlap
     ethr =  1.45E-08,  avg # of iterations =  3.3

     total cpu time spent up to now is    38685.5 secs

     total energy              =   -5786.91301825 Ry
     Harris-Foulkes estimate   =   -5786.91301928 Ry
     estimated scf accuracy    <       0.00000765 Ry

     total magnetization       =     0.00 Bohr mag/cell
     absolute magnetization    =     0.02 Bohr mag/cell

     iteration # 13     ecut=    35.00 Ry     beta= 0.40
     Davidson diagonalization with overlap
     ethr =  9.97E-10,  avg # of iterations =  3.5

     total cpu time spent up to now is    41913.0 secs

     total energy              =   -5786.91301969 Ry
     Harris-Foulkes estimate   =   -5786.91302016 Ry
     estimated scf accuracy    <       0.00000177 Ry

     total magnetization       =     0.00 Bohr mag/cell
     absolute magnetization    =     0.01 Bohr mag/cell

     iteration # 14     ecut=    35.00 Ry     beta= 0.40
     Davidson diagonalization with overlap
     ethr =  2.30E-10,  avg # of iterations =  3.5

     Magnetic moment per site:
     atom:    1    charge:    8.4014    magn:    0.0000    constr:    0.0000
     atom:    2    charge:    8.4014    magn:    0.0000    constr:    0.0000
     atom:    3    charge:    8.4009    magn:    0.0000    constr:    0.0000
     atom:    4    charge:    8.4010    magn:    0.0000    constr:    0.0000
     atom:    5    charge:    8.4014    magn:    0.0000    constr:    0.0000
     atom:    6    charge:    8.4014    magn:    0.0000    constr:    0.0000
     atom:    7    charge:    8.4010    magn:    0.0000    constr:    0.0000
     atom:    8    charge:    8.4009    magn:    0.0000    constr:    0.0000
     atom:    9    charge:    8.4014    magn:    0.0000    constr:    0.0000
     atom:   10    charge:    8.4014    magn:    0.0000    constr:    0.0000
     atom:   11    charge:    8.4010    magn:    0.0000    constr:    0.0000
     atom:   12    charge:    8.4010    magn:    0.0000    constr:    0.0000
     atom:   13    charge:    8.4010    magn:    0.0000    constr:    0.0000
     atom:   14    charge:    8.4009    magn:    0.0000    constr:    0.0000
     atom:   15    charge:    8.4014    magn:    0.0000    constr:    0.0000
     atom:   16    charge:    8.4014    magn:    0.0000    constr:    0.0000
     atom:   17    charge:    8.4015    magn:    0.0000    constr:    0.0000
     atom:   18    charge:    8.4014    magn:    0.0000    constr:    0.0000
     atom:   19    charge:    8.4010    magn:    0.0000    constr:    0.0000
     atom:   20    charge:    8.4009    magn:    0.0000    constr:    0.0000
     atom:   21    charge:    8.4010    magn:    0.0000    constr:    0.0000
     atom:   22    charge:    8.4010    magn:    0.0000    constr:    0.0000
     atom:   23    charge:    8.4014    magn:    0.0000    constr:    0.0000
     atom:   24    charge:    8.4015    magn:    0.0000    constr:    0.0000
     atom:   25    charge:    8.4015    magn:    0.0000    constr:    0.0000
     atom:   26    charge:    8.4014    magn:    0.0000    constr:    0.0000
     atom:   27    charge:    8.4010    magn:    0.0000    constr:    0.0000
     atom:   28    charge:    8.4010    magn:    0.0000    constr:    0.0000
     atom:   29    charge:    8.4015    magn:    0.0000    constr:    0.0000
     atom:   30    charge:    8.4014    magn:    0.0000    constr:    0.0000
     atom:   31    charge:    8.4010    magn:    0.0000    constr:    0.0000
     atom:   32    charge:    8.4010    magn:    0.0000    constr:    0.0000
     atom:   33    charge:    5.3653    magn:   -0.0000    constr:    0.0000
     atom:   34    charge:    5.3653    magn:   -0.0001    constr:    0.0000
     atom:   35    charge:    5.3649    magn:   -0.0000    constr:    0.0000
     atom:   36    charge:    5.3649    magn:   -0.0001    constr:    0.0000
     atom:   37    charge:    5.3649    magn:   -0.0000    constr:    0.0000
     atom:   38    charge:    5.3649    magn:   -0.0000    constr:    0.0000
     atom:   39    charge:    5.3653    magn:   -0.0000    constr:    0.0000
     atom:   40    charge:    5.3653    magn:   -0.0000    constr:    0.0000
     atom:   41    charge:    5.3653    magn:   -0.0000    constr:    0.0000
     atom:   42    charge:    5.3653    magn:   -0.0000    constr:    0.0000
     atom:   43    charge:    5.3649    magn:   -0.0000    constr:    0.0000
     atom:   44    charge:    5.3649    magn:   -0.0000    constr:    0.0000
     atom:   45    charge:    5.3649    magn:   -0.0000    constr:    0.0000
     atom:   46    charge:    5.3649    magn:   -0.0001    constr:    0.0000
     atom:   47    charge:    5.3653    magn:   -0.0001    constr:    0.0000
     atom:   48    charge:    5.3653    magn:   -0.0000    constr:    0.0000
     atom:   49    charge:    5.3653    magn:   -0.0000    constr:    0.0000
     atom:   50    charge:    5.3653    magn:   -0.0001    constr:    0.0000
     atom:   51    charge:    5.3649    magn:   -0.0000    constr:    0.0000
     atom:   52    charge:    5.3649    magn:   -0.0001    constr:    0.0000
     atom:   53    charge:    5.3649    magn:   -0.0000    constr:    0.0000
     atom:   54    charge:    5.3649    magn:   -0.0000    constr:    0.0000
     atom:   55    charge:    5.3653    magn:   -0.0000    constr:    0.0000
     atom:   56    charge:    5.3653    magn:   -0.0000    constr:    0.0000
     atom:   57    charge:    5.3653    magn:   -0.0001    constr:    0.0000
     atom:   58    charge:    5.3653    magn:   -0.0000    constr:    0.0000
     atom:   59    charge:    5.3649    magn:   -0.0000    constr:    0.0000
     atom:   60    charge:    5.3649    magn:   -0.0000    constr:    0.0000
     atom:   61    charge:    5.3649    magn:   -0.0000    constr:    0.0000
     atom:   62    charge:    5.3649    magn:   -0.0001    constr:    0.0000
     atom:   63    charge:    5.3653    magn:   -0.0001    constr:    0.0000
     atom:   64    charge:    5.3653    magn:   -0.0001    constr:    0.0000
     atom:   65    charge:    5.3653    magn:   -0.0000    constr:    0.0000
     atom:   66    charge:    5.3653    magn:   -0.0001    constr:    0.0000
     atom:   67    charge:    5.3649    magn:   -0.0000    constr:    0.0000
     atom:   68    charge:    5.3649    magn:   -0.0000    constr:    0.0000
     atom:   69    charge:    5.3649    magn:   -0.0000    constr:    0.0000
     atom:   70    charge:    5.3649    magn:   -0.0000    constr:    0.0000
     atom:   71    charge:    5.3653    magn:   -0.0000    constr:    0.0000
     atom:   72    charge:    5.3653    magn:   -0.0000    constr:    0.0000
     atom:   73    charge:    5.3653    magn:   -0.0000    constr:    0.0000
     atom:   74    charge:    5.3653    magn:   -0.0000    constr:    0.0000
     atom:   75    charge:    5.3649    magn:   -0.0000    constr:    0.0000
     atom:   76    charge:    5.3649    magn:   -0.0000    constr:    0.0000
     atom:   77    charge:    5.3649    magn:   -0.0000    constr:    0.0000
     atom:   78    charge:    5.3649    magn:   -0.0000    constr:    0.0000
     atom:   79    charge:    5.3653    magn:   -0.0001    constr:    0.0000
     atom:   80    charge:    5.3653    magn:   -0.0000    constr:    0.0000
     atom:   81    charge:    5.3653    magn:   -0.0000    constr:    0.0000
     atom:   82    charge:    5.3653    magn:   -0.0001    constr:    0.0000
     atom:   83    charge:    5.3649    magn:   -0.0000    constr:    0.0000
     atom:   84    charge:    5.3649    magn:   -0.0000    constr:    0.0000
     atom:   85    charge:    5.3649    magn:   -0.0000    constr:    0.0000
     atom:   86    charge:    5.3649    magn:   -0.0000    constr:    0.0000
     atom:   87    charge:    5.3653    magn:   -0.0000    constr:    0.0000
     atom:   88    charge:    5.3653    magn:   -0.0000    constr:    0.0000
     atom:   89    charge:    5.3653    magn:   -0.0000    constr:    0.0000
     atom:   90    charge:    5.3653    magn:   -0.0000    constr:    0.0000
     atom:   91    charge:    5.3649    magn:   -0.0000    constr:    0.0000
     atom:   92    charge:    5.3649    magn:   -0.0000    constr:    0.0000
     atom:   93    charge:    5.3649    magn:   -0.0000    constr:    0.0000
     atom:   94    charge:    5.3649    magn:   -0.0000    constr:    0.0000
     atom:   95    charge:    5.3653    magn:   -0.0001    constr:    0.0000
     atom:   96    charge:    5.3653    magn:   -0.0000    constr:    0.0000

     total cpu time spent up to now is    44870.8 secs

     End of self-consistent calculation

 ------ SPIN UP ------------


          k = 0.0000 0.0000 0.0000 ( 25997 PWs)   bands (ev):

   -49.0922 -49.0833 -49.0833 -49.0750 -49.0749 -49.0748 -49.0748 -49.0748
   -49.0748 -49.0748 -49.0748 -49.0621 -49.0616 -49.0579 -49.0578 -49.0577
   -49.0577 -49.0573 -49.0573 -49.0572 -49.0572 -49.0446 -49.0445 -49.0445
   -49.0445 -49.0444 -49.0444 -49.0444 -49.0444 -49.0403 -49.0402 -49.0313
   -25.6274 -25.5850 -25.5850 -25.5850 -25.5850 -25.5791 -25.5790 -25.5790
   -25.5790 -25.5667 -25.5666 -25.5548 -25.5547 -25.5546 -25.5546 -25.5544
   -25.5543 -25.5541 -25.5541 -25.4702 -25.4702 -25.4702 -25.4701 -25.4535
   -25.4535 -25.4535 -25.4535 -25.4203 -25.4202 -25.3709 -25.3709 -25.3707
   -25.3707 -25.3703 -25.3702 -25.3701 -25.3701 -25.3536 -25.3536 -25.3433
   -25.3433 -25.3432 -25.3432 -25.3387 -25.3386 -25.3386 -25.3386 -25.3385
   -25.3385 -25.3385 -25.3385 -25.3300 -25.3300 -25.3170 -25.3170 -25.3170
   -25.3169 -25.2975 -25.2975 -25.2975 -25.2974 -25.2666 -25.2666 -25.2574
   -25.2574 -25.2430 -25.2430 -25.2430 -25.2430 -25.2421 -25.2421 -25.2421
   -25.2420 -25.2416 -25.2416 -25.2415 -25.2415 -25.2327 -25.2327 -25.2204
   -25.2203 -25.2203 -25.2203 -25.2199 -25.2198 -25.2197 -25.2197 -25.2197
   -25.2197 -25.2195 -25.2195 -25.2104 -25.2103 -25.2103 -25.2103 -25.2037
   -10.4627 -10.2776 -10.2775  -9.9133  -9.9132  -9.9131  -9.9131  -9.9120
    -9.9120  -9.9119  -9.9119  -9.8336  -9.8335  -9.3992  -9.3991  -9.2659
    -9.2242  -9.2074  -9.2073  -9.1444  -9.1443  -9.1442  -9.1442  -9.1428
    -9.1428  -9.1427  -9.1427  -9.0923  -9.0922  -9.0922  -9.0922  -9.0850
    -9.0850  -9.0849  -9.0849  -9.0407  -9.0405  -8.8629  -8.8629  -8.8628
    -8.8628  -8.8503  -8.8502  -8.8502  -8.8502  -8.8470  -8.8470  -8.8469
    -8.8469  -8.8337  -8.8336  -8.8286  -8.8286  -8.8285  -8.8285  -8.7348
    -8.6805  -8.6804  -8.6804  -8.6803  -8.6789  -8.6788  -8.6787  -8.6787
     2.7879   2.7879   2.7879   2.7879   2.8015   2.8015   2.8015   2.8015
     2.8550   2.8550   2.8555   2.8555   2.9877   3.0031   3.0031   3.0035
     3.0036   3.0176   3.0176   3.0493   3.0493   3.0494   3.0494   3.0510
     3.0511   3.0515   3.0516   3.0813   3.0813   3.1046   3.1046   3.1047
     3.1047   3.1060   3.1060   3.1061   3.1061   3.1151   3.1151   3.1152
     3.1152   3.1168   3.1168   3.1168   3.1168   3.1490   3.1490   3.1494
     3.1496   3.1906   3.1906   3.3603   3.3603   3.3604   3.3604   3.4018
     3.4019   3.4019   3.4019   3.4166   3.4173   3.5763   3.5763   3.5766
     3.5767   3.6057   3.6058   3.6117   3.6117   3.6120   3.6120   3.9147
     3.9147   3.9147   3.9147   3.9485   4.1877   4.1877   4.1877   4.1877
     4.3064   4.3064   4.3072   4.3072   4.5592   4.5592   4.5601   4.5601
     4.5656   4.5656   4.5656   4.5656   4.9749   5.0126   5.0126   5.0130
     5.0130   5.0131   5.0131   5.0136   5.0136   5.0492   5.0492   5.0493
     5.0493   5.1009   5.1010   5.1010   5.1010   5.1248   5.1249   5.1249
     5.1249   5.1857   5.1857   5.1858   5.1858   5.2645   5.2645   5.2646
     5.2646   5.3605   5.3605   5.3605   5.3605   5.3616   5.3616   5.3626
     5.3626   5.4976   5.4977   5.8285   5.8296   5.8586   5.8586   5.8599
     5.8599   6.0172   6.0172   6.0173   6.0173   6.0882   6.0882   6.1053
     6.1053   6.1358   6.1358   6.1358   6.1358   6.2562   6.2562   6.2563
     6.2563   6.2978   6.2979   6.2980   6.2980   6.3540   6.3540   6.3541
     6.3541   6.4109   6.5537   6.5537   6.5537   6.5537   6.5628   6.5628
     6.5691   6.5691   6.5692   6.5692   6.5709   6.5710   6.5710   6.5710
     6.6514   6.6515   6.6519   6.6521   6.7615   6.7615   6.9412   6.9413
     6.9419   6.9421   7.0313   7.0313   7.0314   7.0314   7.1575   7.1575
     9.4061   9.5082   9.5083   9.7632   9.7636  10.0301  10.0302  10.1435
    10.4374  10.4375  10.4375  10.4375  10.5061  10.5061  10.5062  10.5062
    10.6250  10.6250  10.6250  10.6250  10.6520  10.6520  10.6523  10.6523
    10.6568  10.6568  10.6568  10.6568  10.7771  10.7771  10.7771  10.7771
    10.8328  10.8328  10.8328  10.8328  10.8602  10.8602  10.8602  10.8602
    10.8954  10.8954  10.8954  10.8954  10.9026  10.9026  10.9027  10.9028
    10.9636  10.9636  10.9636  10.9636  11.0164  11.0164  11.0166  11.0166
    11.1162  11.1162  11.2307  11.2307  11.2307  11.2307  11.5095  11.5095
    11.6014  11.6014  11.6175  11.6175  11.6175  11.6175  11.7217  11.7218
    11.7218  11.7218  11.8912  11.8913  11.8917

          k = 0.0000 0.0000 0.0990 ( 25968 PWs)   bands (ev):

   -49.0916 -49.0871 -49.0787 -49.0750 -49.0749 -49.0748 -49.0748 -49.0748
   -49.0748 -49.0748 -49.0747 -49.0678 -49.0579 -49.0578 -49.0577 -49.0577
   -49.0573 -49.0573 -49.0572 -49.0572 -49.0559 -49.0449 -49.0446 -49.0445
   -49.0445 -49.0445 -49.0444 -49.0444 -49.0444 -49.0444 -49.0365 -49.0319
   -25.6236 -25.5932 -25.5844 -25.5843 -25.5843 -25.5843 -25.5804 -25.5803
   -25.5803 -25.5803 -25.5541 -25.5541 -25.5541 -25.5540 -25.5539 -25.5539
   -25.5538 -25.5538 -25.5352 -25.4676 -25.4676 -25.4676 -25.4676 -25.4599
   -25.4561 -25.4561 -25.4561 -25.4561 -25.3780 -25.3704 -25.3704 -25.3702
   -25.3702 -25.3701 -25.3701 -25.3699 -25.3699 -25.3527 -25.3527 -25.3473
   -25.3473 -25.3390 -25.3390 -25.3387 -25.3387 -25.3386 -25.3386 -25.3386
   -25.3386 -25.3385 -25.3385 -25.3318 -25.3318 -25.3142 -25.3142 -25.3142
   -25.3142 -25.3005 -25.3005 -25.3005 -25.3005 -25.3004 -25.2562 -25.2562
   -25.2480 -25.2480 -25.2418 -25.2418 -25.2418 -25.2417 -25.2416 -25.2416
   -25.2416 -25.2416 -25.2402 -25.2387 -25.2387 -25.2333 -25.2333 -25.2196
   -25.2195 -25.2195 -25.2195 -25.2194 -25.2194 -25.2193 -25.2193 -25.2187
   -25.2186 -25.2186 -25.2186 -25.2118 -25.2118 -25.2118 -25.2118 -25.2079
   -10.4506 -10.3561 -10.1821  -9.9554  -9.9131  -9.9131  -9.9130  -9.9130
    -9.9121  -9.9121  -9.9121  -9.9120  -9.7124  -9.4909  -9.3246  -9.2623
    -9.2355  -9.2329  -9.1747  -9.1443  -9.1442  -9.1441  -9.1441  -9.1428
    -9.1427  -9.1426  -9.1426  -9.0913  -9.0912  -9.0912  -9.0912  -9.0903
    -9.0861  -9.0861  -9.0861  -9.0860  -8.9878  -8.8817  -8.8619  -8.8619
    -8.8619  -8.8619  -8.8549  -8.8549  -8.8549  -8.8549  -8.8415  -8.8415
    -8.8414  -8.8414  -8.8303  -8.8303  -8.8303  -8.8302  -8.7927  -8.7415
    -8.6803  -8.6802  -8.6802  -8.6802  -8.6787  -8.6787  -8.6786  -8.6786
     2.7898   2.7898   2.7898   2.7898   2.7995   2.7995   2.7995   2.7995
     2.8686   2.8686   2.8691   2.8691   2.9608   2.9608   2.9613   2.9613
     3.0031   3.0199   3.0199   3.0370   3.0370   3.0616   3.0616   3.0790
     3.0790   3.0858   3.0858   3.0862   3.0863   3.1048   3.1048   3.1049
     3.1049   3.1059   3.1059   3.1060   3.1060   3.1129   3.1154   3.1154
     3.1154   3.1155   3.1166   3.1166   3.1166   3.1166   3.1425   3.1426
     3.1429   3.1431   3.2678   3.3652   3.3653   3.3653   3.3654   3.3828
     3.3945   3.3945   3.3946   3.3946   3.4458   3.5316   3.5822   3.5822
     3.5826   3.5826   3.6072   3.6072   3.6076   3.6076   3.7023   3.9076
     3.9454   3.9454   3.9454   3.9454   4.1291   4.1291   4.1291   4.1291
     4.3349   4.3349   4.3357   4.3358   4.5096   4.5096   4.5105   4.5105
     4.6428   4.6428   4.6428   4.6428   4.9834   4.9834   4.9834   4.9834
     5.0126   5.0127   5.0129   5.0129   5.0131   5.0131   5.0135   5.0135
     5.0303   5.0565   5.0565   5.0566   5.0566   5.1057   5.1057   5.1057
     5.1058   5.2053   5.2053   5.2054   5.2054   5.2568   5.2568   5.2568
     5.2568   5.3353   5.4376   5.4376   5.4386   5.4386   5.4847   5.4847
     5.4847   5.4847   5.6318   5.7801   5.7801   5.7813   5.7813   5.7892
     5.8675   5.8834   5.8834   5.8835   5.8835   6.0029   6.0995   6.0995
     6.1860   6.1860   6.2161   6.2182   6.2182   6.2182   6.2182   6.2917
     6.2918   6.2918   6.2919   6.3396   6.3396   6.3831   6.3831   6.3831
     6.3831   6.3858   6.5169   6.5169   6.5285   6.5285   6.5285   6.5285
     6.5693   6.5694   6.5695   6.5695   6.5707   6.5707   6.5708   6.5708
     6.7078   6.7078   6.7083   6.7085   6.8048   6.8048   6.9079   6.9079
     6.9086   6.9087   6.9626   6.9626   7.0862   7.0862   7.1496   7.1496
     9.4122   9.4645   9.5629   9.6921   9.8358   9.9716  10.0783  10.1358
    10.4519  10.4519  10.4519  10.4519  10.5235  10.5235  10.5236  10.5236
    10.5578  10.5578  10.5578  10.5578  10.6245  10.6245  10.6247  10.6247
    10.7303  10.7303  10.7303  10.7303  10.7799  10.7799  10.7799  10.7799
    10.8116  10.8116  10.8116  10.8116  10.8724  10.8724  10.8724  10.8724
    10.8883  10.8883  10.8883  10.8883  10.9273  10.9273  10.9274  10.9274
    10.9535  10.9535  10.9536  10.9536  11.0052  11.0052  11.0054  11.0054
    11.1237  11.1237  11.1806  11.1806  11.2930  11.2930  11.4513  11.4513
    11.6315  11.6315  11.6315  11.6315  11.6595  11.6595  11.7044  11.7044
    11.7044  11.7044  11.8229  11.8229  11.9090

          k = 0.0000 0.0000-0.1980 ( 25972 PWs)   bands (ev):

   -49.0899 -49.0898 -49.0750 -49.0749 -49.0748 -49.0748 -49.0748 -49.0748
   -49.0748 -49.0747 -49.0735 -49.0734 -49.0579 -49.0578 -49.0577 -49.0577
   -49.0573 -49.0573 -49.0572 -49.0572 -49.0502 -49.0501 -49.0446 -49.0445
   -49.0445 -49.0445 -49.0444 -49.0444 -49.0444 -49.0444 -49.0337 -49.0336
   -25.6123 -25.6123 -25.5824 -25.5824 -25.5824 -25.5824 -25.5824 -25.5823
   -25.5823 -25.5823 -25.5543 -25.5542 -25.5542 -25.5542 -25.5541 -25.5541
   -25.5540 -25.5540 -25.4985 -25.4985 -25.4622 -25.4622 -25.4622 -25.4622
   -25.4622 -25.4622 -25.4621 -25.4621 -25.3706 -25.3705 -25.3705 -25.3704
   -25.3703 -25.3703 -25.3703 -25.3703 -25.3503 -25.3503 -25.3503 -25.3503
   -25.3387 -25.3386 -25.3386 -25.3386 -25.3386 -25.3386 -25.3385 -25.3385
   -25.3372 -25.3371 -25.3350 -25.3350 -25.3349 -25.3349 -25.3074 -25.3074
   -25.3074 -25.3073 -25.3073 -25.3073 -25.3073 -25.3073 -25.2532 -25.2532
   -25.2531 -25.2531 -25.2415 -25.2415 -25.2415 -25.2415 -25.2415 -25.2414
   -25.2414 -25.2414 -25.2350 -25.2350 -25.2350 -25.2350 -25.2210 -25.2210
   -25.2198 -25.2198 -25.2198 -25.2198 -25.2196 -25.2196 -25.2196 -25.2196
   -25.2149 -25.2149 -25.2149 -25.2149 -25.2149 -25.2149 -25.2149 -25.2148
   -10.4147 -10.4146 -10.0731 -10.0730  -9.9127  -9.9126  -9.9124  -9.9124
    -9.9124  -9.9124  -9.9124  -9.9124  -9.5967  -9.5967  -9.2694  -9.2693
    -9.2513  -9.2511  -9.1443  -9.1442  -9.1442  -9.1441  -9.1428  -9.1428
    -9.1426  -9.1426  -9.1355  -9.1354  -9.0888  -9.0887  -9.0887  -9.0886
    -9.0886  -9.0886  -9.0886  -9.0885  -8.9339  -8.9339  -8.8594  -8.8594
    -8.8594  -8.8593  -8.8592  -8.8592  -8.8592  -8.8592  -8.8351  -8.8351
    -8.8349  -8.8349  -8.8349  -8.8349  -8.8349  -8.8349  -8.7614  -8.7612
    -8.6804  -8.6803  -8.6803  -8.6802  -8.6788  -8.6788  -8.6786  -8.6786
     2.7945   2.7945   2.7946   2.7946   2.7946   2.7947   2.7947   2.7947
     2.9067   2.9067   2.9068   2.9068   2.9072   2.9072   2.9073   2.9073
     3.0266   3.0266   3.0267   3.0267   3.0469   3.0469   3.0722   3.0722
     3.0723   3.0723   3.1052   3.1052   3.1054   3.1054   3.1054   3.1054
     3.1054   3.1054   3.1159   3.1159   3.1160   3.1160   3.1161   3.1161
     3.1161   3.1161   3.1217   3.1218   3.1218   3.1218   3.1221   3.1222
     3.1223   3.1223   3.3338   3.3338   3.3787   3.3787   3.3788   3.3788
     3.3788   3.3788   3.3789   3.3789   3.4804   3.4804   3.5954   3.5954
     3.5955   3.5955   3.5957   3.5958   3.5958   3.5959   3.8113   3.8114
     4.0265   4.0265   4.0265   4.0265   4.0265   4.0266   4.0266   4.0266
     4.4125   4.4125   4.4126   4.4126   4.4133   4.4134   4.4134   4.4135
     4.8031   4.8031   4.8032   4.8032   4.8032   4.8032   4.8032   4.8033
     5.0127   5.0127   5.0129   5.0129   5.0133   5.0133   5.0134   5.0134
     5.0769   5.0769   5.0771   5.0771   5.0771   5.0771   5.0772   5.0772
     5.1670   5.1672   5.2350   5.2350   5.2351   5.2352   5.2352   5.2352
     5.2352   5.2353   5.6076   5.6076   5.6077   5.6077   5.6087   5.6087
     5.6087   5.6088   5.6848   5.6848   5.6849   5.6849   5.6849   5.6849
     5.6849   5.6849   5.7281   5.7282   5.9226   5.9226   6.1327   6.1327
     6.1328   6.1328   6.2712   6.2712   6.2714   6.2714   6.2714   6.2714
     6.2714   6.2715   6.3159   6.3160   6.4301   6.4301   6.4301   6.4301
     6.4602   6.4603   6.4603   6.4603   6.4603   6.4604   6.4604   6.4604
     6.5699   6.5699   6.5702   6.5702   6.5702   6.5702   6.5702   6.5702
     6.8180   6.8180   6.8182   6.8182   6.8185   6.8188   6.8189   6.8189
     6.8838   6.8838   6.8839   6.8839   7.1258   7.1258   7.1259   7.1259
     9.4319   9.4319   9.6247   9.6248   9.9067   9.9067  10.1133  10.1134
    10.4936  10.4937  10.4937  10.4937  10.4937  10.4937  10.4937  10.4937
    10.5688  10.5688  10.5689  10.5689  10.5690  10.5690  10.5690  10.5690
    10.7909  10.7909  10.7910  10.7910  10.7910  10.7910  10.7910  10.7910
    10.8121  10.8121  10.8121  10.8121  10.8122  10.8122  10.8122  10.8122
    10.9257  10.9258  10.9258  10.9258  10.9258  10.9258  10.9258  10.9259
    10.9708  10.9708  10.9708  10.9708  10.9709  10.9710  10.9710  10.9710
    11.1457  11.1457  11.1457  11.1457  11.3687  11.3687  11.3688  11.3688
    11.6671  11.6671  11.6671  11.6671  11.6671  11.6671  11.6671  11.6671
    11.7433  11.7433  11.7434  11.7434  11.9286

          k = 0.0000 0.2500 0.0000 ( 25961 PWs)   bands (ev):

   -49.0907 -49.0822 -49.0822 -49.0810 -49.0763 -49.0762 -49.0734 -49.0734
   -49.0734 -49.0733 -49.0693 -49.0637 -49.0636 -49.0636 -49.0635 -49.0627
   -49.0603 -49.0521 -49.0520 -49.0520 -49.0519 -49.0506 -49.0454 -49.0453
   -49.0453 -49.0452 -49.0437 -49.0437 -49.0408 -49.0407 -49.0389 -49.0322
   -25.6254 -25.6069 -25.5835 -25.5835 -25.5782 -25.5782 -25.5770 -25.5769
   -25.5708 -25.5708 -25.5692 -25.5691 -25.5683 -25.5683 -25.5479 -25.5275
   -25.5275 -25.5250 -25.5250 -25.4767 -25.4767 -25.4626 -25.4626 -25.4548
   -25.4548 -25.4533 -25.4461 -25.4323 -25.4247 -25.3760 -25.3760 -25.3717
   -25.3717 -25.3683 -25.3682 -25.3582 -25.3582 -25.3530 -25.3530 -25.3526
   -25.3502 -25.3501 -25.3500 -25.3480 -25.3479 -25.3435 -25.3429 -25.3428
   -25.3417 -25.3394 -25.3394 -25.3344 -25.3306 -25.3228 -25.3227 -25.3222
   -25.3065 -25.3064 -25.3049 -25.2925 -25.2925 -25.2665 -25.2665 -25.2659
   -25.2556 -25.2466 -25.2429 -25.2428 -25.2427 -25.2426 -25.2424 -25.2424
   -25.2406 -25.2405 -25.2399 -25.2398 -25.2377 -25.2335 -25.2330 -25.2312
   -25.2312 -25.2290 -25.2290 -25.2245 -25.2221 -25.2221 -25.2157 -25.2157
   -25.2123 -25.2123 -25.2095 -25.2094 -25.2076 -25.2076 -25.1986 -25.1984
   -10.3950 -10.2165 -10.2164 -10.0448  -9.9557  -9.9556  -9.8455  -9.8284
    -9.8263  -9.8262  -9.8248  -9.8247  -9.7411  -9.3629  -9.3628  -9.3356
    -9.3355  -9.3337  -9.3336  -9.2326  -9.2059  -9.1943  -9.1766  -9.1765
    -9.1288  -9.1287  -9.1026  -9.0738  -9.0738  -9.0654  -9.0654  -9.0628
    -9.0628  -9.0582  -9.0582  -9.0361  -9.0045  -9.0044  -8.9949  -8.9932
    -8.9692  -8.8359  -8.8358  -8.8283  -8.8282  -8.8187  -8.8186  -8.8181
    -8.8181  -8.8175  -8.8158  -8.8157  -8.7601  -8.7600  -8.7454  -8.7453
    -8.7396  -8.7396  -8.7212  -8.7189  -8.6674  -8.6673  -8.6643  -8.6642
     2.4625   2.5293   2.5294   2.5650   2.5651   2.5963   2.5964   2.6364
     2.7824   2.7824   2.7963   2.7963   2.8290   2.8340   2.8342   2.8443
     2.8597   2.8597   2.8665   2.8666   2.9362   2.9363   2.9377   2.9377
     2.9939   3.0214   3.0264   3.0572   3.0573   3.0800   3.0884   3.0957
     3.0957   3.0973   3.0974   3.1119   3.1119   3.1130   3.1191   3.1192
     3.1476   3.1477   3.2160   3.2160   3.3404   3.3405   3.3885   3.3886
     3.4076   3.4128   3.4128   3.4479   3.4480   3.4766   3.4934   3.5140
     3.5140   3.5750   3.5751   3.5924   3.5924   3.6607   3.6608   3.6740
     3.7725   3.7726   3.8696   3.8696   3.9185   3.9365   4.0225   4.0226
     4.1118   4.1119   4.1651   4.1651   4.1712   4.1713   4.1728   4.1729
     4.2121   4.2927   4.3222   4.3236   4.3237   4.5073   4.5073   4.6282
     4.6282   4.6999   4.6999   4.7307   4.7307   4.7967   4.7968   4.8494
     4.8690   4.8690   4.9289   4.9290   4.9292   4.9592   4.9755   4.9756
     4.9781   4.9782   4.9837   4.9917   4.9918   5.0010   5.0177   5.0335
     5.0526   5.0678   5.0678   5.0752   5.0753   5.3920   5.3920   5.4579
     5.4647   5.4817   5.4818   5.5054   5.5055   5.5561   5.5562   5.6048
     5.6048   5.6380   5.6492   5.6492   5.8261   5.8514   5.8514   5.8976
     5.9804   5.9805   6.0013   6.0190   6.1265   6.1696   6.1696   6.1701
     6.1701   6.1794   6.1795   6.2122   6.2139   6.2140   6.2217   6.2218
     6.2503   6.3133   6.3134   6.3166   6.3167   6.3585   6.3586   6.3641
     6.4105   6.4237   6.4881   6.4882   6.4882   6.4953   6.4954   6.4993
     6.4995   6.5562   6.5598   6.5604   6.5853   6.5853   6.6102   6.6103
     6.6161   6.6167   6.6167   6.7350   6.7351   6.7750   6.7751   6.7757
     6.8309   6.8310   6.8596   6.8597   6.9028   6.9864   6.9887   6.9887
     9.7207   9.7620   9.7620   9.8524  10.0475  10.1483  10.1483  10.1982
    10.3388  10.3388  10.3744  10.4039  10.4039  10.4406  10.4406  10.4792
    10.4792  10.4993  10.4997  10.4997  10.5804  10.5805  10.5853  10.5853
    10.6179  10.6179  10.6797  10.6828  10.6857  10.6857  10.7438  10.7438
    10.7541  10.7846  10.7847  10.7956  10.8137  10.8137  10.8298  10.8355
    10.8356  10.8570  10.8570  10.8648  10.8648  10.8785  10.8785  10.9350
    10.9848  10.9848  10.9980  11.0030  11.0031  11.0722  11.0722  11.0850
    11.0850  11.1079  11.1141  11.1142  11.1587  11.2338  11.2339  11.2368
    11.3419  11.3430  11.3431  11.4219  11.4314  11.4315  11.5645  11.5657
    11.5657  11.5830  11.6407  11.6407  11.6525

          k = 0.0000 0.2500 0.0990 ( 25997 PWs)   bands (ev):

   -49.0901 -49.0858 -49.0806 -49.0782 -49.0778 -49.0740 -49.0734 -49.0734
   -49.0734 -49.0733 -49.0700 -49.0673 -49.0637 -49.0636 -49.0636 -49.0635
   -49.0557 -49.0521 -49.0520 -49.0520 -49.0519 -49.0499 -49.0459 -49.0454
   -49.0453 -49.0453 -49.0452 -49.0452 -49.0417 -49.0392 -49.0371 -49.0327
   -25.6217 -25.6050 -25.5926 -25.5891 -25.5829 -25.5829 -25.5792 -25.5791
   -25.5708 -25.5708 -25.5692 -25.5692 -25.5650 -25.5497 -25.5388 -25.5275
   -25.5274 -25.5257 -25.5257 -25.4747 -25.4747 -25.4710 -25.4647 -25.4647
   -25.4583 -25.4553 -25.4482 -25.4349 -25.4049 -25.3764 -25.3756 -25.3756
   -25.3728 -25.3728 -25.3612 -25.3575 -25.3575 -25.3537 -25.3537 -25.3517
   -25.3515 -25.3500 -25.3499 -25.3484 -25.3483 -25.3467 -25.3434 -25.3408
   -25.3384 -25.3376 -25.3350 -25.3349 -25.3316 -25.3203 -25.3203 -25.3178
   -25.3086 -25.3085 -25.3038 -25.2978 -25.2940 -25.2896 -25.2646 -25.2592
   -25.2545 -25.2474 -25.2464 -25.2441 -25.2425 -25.2424 -25.2411 -25.2411
   -25.2403 -25.2393 -25.2390 -25.2378 -25.2342 -25.2336 -25.2311 -25.2311
   -25.2294 -25.2294 -25.2285 -25.2256 -25.2249 -25.2145 -25.2145 -25.2145
   -25.2118 -25.2118 -25.2102 -25.2101 -25.2088 -25.2088 -25.2023 -25.2009
   -10.3833 -10.2922 -10.1245 -10.0385  -9.9916  -9.9167  -9.9104  -9.8550
    -9.8261  -9.8260  -9.8250  -9.8249  -9.6598  -9.4510  -9.3354  -9.3353
    -9.3340  -9.3339  -9.2912  -9.2294  -9.2049  -9.2007  -9.1982  -9.1522
    -9.1457  -9.1133  -9.1032  -9.0727  -9.0726  -9.0674  -9.0667  -9.0667
    -9.0622  -9.0622  -9.0590  -9.0589  -9.0056  -8.9961  -8.9957  -8.9732
    -8.9607  -8.8615  -8.8348  -8.8347  -8.8294  -8.8294  -8.8186  -8.8185
    -8.8181  -8.8181  -8.8121  -8.7793  -8.7766  -8.7446  -8.7446  -8.7429
    -8.7404  -8.7404  -8.7277  -8.7217  -8.6670  -8.6669  -8.6647  -8.6647
     2.4669   2.5013   2.5622   2.5694   2.5695   2.5915   2.5916   2.6245
     2.7834   2.7834   2.7926   2.7926   2.8290   2.8311   2.8376   2.8434
     2.8699   2.8699   2.8775   2.8776   2.9249   2.9249   2.9260   2.9261
     3.0107   3.0287   3.0454   3.0487   3.0691   3.0814   3.0861   3.0908
     3.0982   3.0982   3.1036   3.1096   3.1096   3.1118   3.1241   3.1241
     3.1304   3.1440   3.1441   3.2270   3.3031   3.3952   3.3953   3.4111
     3.4117   3.4194   3.4195   3.4365   3.4366   3.4400   3.4783   3.4783
     3.5207   3.5980   3.5999   3.6159   3.6451   3.6452   3.6632   3.7391
     3.7591   3.7592   3.8602   3.9044   3.9072   3.9072   4.0384   4.0385
     4.1048   4.1049   4.1096   4.1096   4.1629   4.1777   4.1778   4.1806
     4.1949   4.2720   4.2783   4.2783   4.4197   4.5300   4.5300   4.6614
     4.6614   4.6680   4.6680   4.7293   4.7294   4.7804   4.8020   4.8021
     4.8545   4.8577   4.8578   4.8966   4.9595   4.9610   4.9670   4.9767
     4.9843   4.9885   4.9944   4.9951   5.0003   5.0060   5.0276   5.0997
     5.0997   5.1082   5.1294   5.1576   5.1577   5.3039   5.3039   5.3785
     5.3971   5.4610   5.4677   5.4771   5.4808   5.5247   5.5247   5.5801
     5.6720   5.6892   5.7479   5.7479   5.8191   5.8956   5.9005   5.9005
     5.9316   5.9513   6.0291   6.0446   6.0824   6.0825   6.1066   6.1385
     6.1581   6.1581   6.1795   6.1797   6.1821   6.1823   6.1823   6.2405
     6.2464   6.2734   6.3458   6.3509   6.3576   6.3865   6.4120   6.4120
     6.4218   6.4318   6.4570   6.4897   6.4899   6.4977   6.4979   6.5432
     6.5433   6.5583   6.5694   6.5738   6.5818   6.5919   6.5919   6.5971
     6.6106   6.6137   6.6250   6.7404   6.7405   6.7743   6.7903   6.7904
     6.7911   6.7999   6.8611   6.8982   6.9146   6.9622   6.9623   6.9784
     9.7233   9.7435   9.7868   9.8415  10.0598  10.1199  10.1708  10.1953
    10.3330  10.3643  10.3658  10.4160  10.4160  10.4446  10.4446  10.4676
    10.4714  10.4714  10.4835  10.4835  10.5868  10.5868  10.5981  10.5981
    10.6139  10.6139  10.6691  10.6692  10.6823  10.7156  10.7176  10.7730
    10.7738  10.7926  10.7927  10.7976  10.8191  10.8192  10.8262  10.8286
    10.8287  10.8388  10.8442  10.8507  10.8508  10.8541  10.9200  10.9390
    10.9719  10.9874  11.0037  11.0038  11.0420  11.0729  11.0729  11.0772
    11.0772  11.1067  11.1067  11.1160  11.1324  11.1788  11.2604  11.3039
    11.3257  11.3441  11.3489  11.4109  11.4179  11.4778  11.4794  11.5765
    11.5766  11.6147  11.6288  11.6289  11.6693

          k = 0.0000 0.2500-0.1980 ( 25974 PWs)   bands (ev):

   -49.0885 -49.0885 -49.0797 -49.0797 -49.0734 -49.0734 -49.0734 -49.0733
   -49.0728 -49.0727 -49.0718 -49.0718 -49.0637 -49.0636 -49.0636 -49.0635
   -49.0521 -49.0520 -49.0520 -49.0519 -49.0503 -49.0502 -49.0482 -49.0481
   -49.0454 -49.0453 -49.0453 -49.0452 -49.0402 -49.0402 -49.0344 -49.0344
   -25.6105 -25.6104 -25.5985 -25.5985 -25.5812 -25.5811 -25.5811 -25.5811
   -25.5701 -25.5700 -25.5700 -25.5700 -25.5556 -25.5555 -25.5266 -25.5265
   -25.5265 -25.5265 -25.5051 -25.5050 -25.4697 -25.4697 -25.4697 -25.4697
   -25.4581 -25.4580 -25.4406 -25.4406 -25.3873 -25.3872 -25.3745 -25.3744
   -25.3744 -25.3744 -25.3555 -25.3554 -25.3554 -25.3554 -25.3554 -25.3553
   -25.3498 -25.3497 -25.3493 -25.3493 -25.3493 -25.3492 -25.3424 -25.3424
   -25.3359 -25.3359 -25.3343 -25.3342 -25.3156 -25.3156 -25.3144 -25.3143
   -25.3143 -25.3143 -25.3078 -25.3078 -25.2990 -25.2990 -25.2615 -25.2614
   -25.2515 -25.2515 -25.2454 -25.2453 -25.2419 -25.2419 -25.2419 -25.2418
   -25.2388 -25.2388 -25.2364 -25.2364 -25.2357 -25.2357 -25.2303 -25.2303
   -25.2303 -25.2302 -25.2258 -25.2258 -25.2131 -25.2130 -25.2116 -25.2116
   -25.2116 -25.2116 -25.2110 -25.2110 -25.2109 -25.2109 -25.2064 -25.2064
   -10.3486 -10.3485 -10.0206 -10.0205 -10.0203 -10.0202  -9.8810  -9.8808
    -9.8257  -9.8255  -9.8255  -9.8255  -9.5518  -9.5518  -9.3348  -9.3346
    -9.3346  -9.3346  -9.2389  -9.2387  -9.2176  -9.2174  -9.1781  -9.1780
    -9.1087  -9.1087  -9.1059  -9.1058  -9.0698  -9.0697  -9.0696  -9.0696
    -9.0606  -9.0606  -9.0605  -9.0605  -9.0013  -9.0011  -8.9836  -8.9835
    -8.9110  -8.9110  -8.8322  -8.8321  -8.8320  -8.8320  -8.8184  -8.8184
    -8.8183  -8.8182  -8.7981  -8.7980  -8.7466  -8.7465  -8.7426  -8.7426
    -8.7425  -8.7425  -8.7298  -8.7297  -8.6659  -8.6658  -8.6657  -8.6657
     2.4800   2.4801   2.5801   2.5804   2.5804   2.5804   2.5961   2.5962
     2.7868   2.7868   2.7869   2.7869   2.8294   2.8295   2.8409   2.8410
     2.8961   2.8961   2.8962   2.8962   2.9019   2.9021   2.9021   2.9021
     3.0353   3.0355   3.0585   3.0586   3.0793   3.0794   3.0852   3.0853
     3.1040   3.1041   3.1041   3.1041   3.1085   3.1086   3.1226   3.1226
     3.1346   3.1348   3.1348   3.1348   3.3801   3.3802   3.4136   3.4138
     3.4138   3.4138   3.4185   3.4186   3.4406   3.4406   3.4407   3.4407
     3.5553   3.5554   3.6345   3.6346   3.7157   3.7158   3.7158   3.7158
     3.7350   3.7350   3.8274   3.8276   4.0009   4.0009   4.0010   4.0010
     4.0772   4.0773   4.0773   4.0773   4.1637   4.1638   4.2082   4.2083
     4.2083   4.2083   4.2307   4.2308   4.5896   4.5896   4.5897   4.5897
     4.5897   4.5897   4.7164   4.7165   4.7166   4.7166   4.8269   4.8270
     4.8270   4.8270   4.8704   4.8705   4.9613   4.9614   4.9859   4.9860
     4.9872   4.9874   4.9981   4.9983   5.0127   5.0128   5.0863   5.0864
     5.1789   5.1789   5.1790   5.1790   5.2364   5.2366   5.3444   5.3444
     5.3444   5.3445   5.4477   5.4477   5.4687   5.4688   5.4747   5.4748
     5.7795   5.7796   5.8289   5.8290   5.9024   5.9026   5.9149   5.9149
     5.9150   5.9150   6.0224   6.0225   6.0226   6.0226   6.0588   6.0589
     6.1167   6.1168   6.1771   6.1772   6.1801   6.1803   6.1803   6.1803
     6.3153   6.3155   6.3320   6.3320   6.3507   6.3508   6.4281   6.4281
     6.4936   6.4938   6.4939   6.4939   6.5206   6.5206   6.5207   6.5207
     6.5267   6.5267   6.5644   6.5645   6.5912   6.5913   6.6070   6.6071
     6.6491   6.6493   6.6494   6.6494   6.7113   6.7114   6.7789   6.7790
     6.8841   6.8842   6.8881   6.8883   6.8884   6.8884   6.9543   6.9545
     9.7306   9.7306   9.8154   9.8155  10.0881  10.0881  10.1864  10.1865
    10.3452  10.3452  10.4122  10.4122  10.4476  10.4476  10.4476  10.4476
    10.4564  10.4564  10.4564  10.4564  10.6017  10.6017  10.6017  10.6017
    10.6321  10.6322  10.6322  10.6322  10.6946  10.6946  10.7830  10.7830
    10.7953  10.7954  10.8115  10.8115  10.8116  10.8116  10.8152  10.8152
    10.8249  10.8250  10.8353  10.8353  10.8354  10.8354  10.9509  10.9509
    10.9594  10.9595  11.0415  11.0415  11.0415  11.0415  11.0871  11.0871
    11.0906  11.0906  11.0906  11.0906  11.1395  11.1395  11.2970  11.2971
    11.3477  11.3477  11.3870  11.3871  11.4107  11.4107  11.5465  11.5465
    11.6024  11.6024  11.6024  11.6025  11.6959

          k = 0.0000-0.5000 0.0000 ( 25942 PWs)   bands (ev):

   -49.0867 -49.0866 -49.0794 -49.0793 -49.0793 -49.0793 -49.0694 -49.0694
   -49.0694 -49.0693 -49.0693 -49.0693 -49.0693 -49.0692 -49.0652 -49.0652
   -49.0563 -49.0563 -49.0479 -49.0479 -49.0479 -49.0478 -49.0478 -49.0478
   -49.0478 -49.0477 -49.0422 -49.0421 -49.0421 -49.0420 -49.0347 -49.0347
   -25.6185 -25.6184 -25.5795 -25.5794 -25.5794 -25.5794 -25.5754 -25.5754
   -25.5754 -25.5753 -25.5723 -25.5722 -25.5722 -25.5722 -25.4975 -25.4975
   -25.4971 -25.4971 -25.4971 -25.4971 -25.4900 -25.4900 -25.4899 -25.4899
   -25.4383 -25.4383 -25.4146 -25.4146 -25.4146 -25.4145 -25.3922 -25.3922
   -25.3685 -25.3685 -25.3684 -25.3684 -25.3636 -25.3635 -25.3635 -25.3635
   -25.3488 -25.3487 -25.3411 -25.3410 -25.3410 -25.3410 -25.3396 -25.3396
   -25.3396 -25.3396 -25.3317 -25.3316 -25.3285 -25.3284 -25.3284 -25.3284
   -25.3279 -25.3279 -25.2854 -25.2854 -25.2793 -25.2793 -25.2793 -25.2792
   -25.2520 -25.2520 -25.2426 -25.2425 -25.2425 -25.2425 -25.2401 -25.2400
   -25.2400 -25.2400 -25.2367 -25.2367 -25.2366 -25.2366 -25.2343 -25.2343
   -25.2326 -25.2326 -25.2286 -25.2286 -25.2285 -25.2285 -25.2110 -25.2110
   -25.2110 -25.2109 -25.2056 -25.2055 -25.2055 -25.2055 -25.1937 -25.1936
   -10.2278 -10.2278 -10.0773 -10.0772 -10.0771 -10.0771  -9.8248  -9.8247
    -9.6011  -9.6011  -9.6010  -9.6010  -9.5993  -9.5993  -9.5992  -9.5991
    -9.4971  -9.4971  -9.2562  -9.2562  -9.2561  -9.2561  -9.1616  -9.1616
    -9.1072  -9.1071  -9.1070  -9.1070  -9.1045  -9.1045  -9.0510  -9.0510
    -9.0510  -9.0510  -9.0426  -9.0426  -9.0426  -9.0426  -9.0237  -9.0236
    -8.8916  -8.8916  -8.8020  -8.8020  -8.8020  -8.8019  -8.7896  -8.7896
    -8.7896  -8.7895  -8.7735  -8.7735  -8.7735  -8.7734  -8.7386  -8.7386
    -8.7386  -8.7386  -8.7329  -8.7329  -8.7328  -8.7328  -8.6967  -8.6967
     2.5034   2.5035   2.5418   2.5418   2.5419   2.5419   2.5728   2.5728
     2.5729   2.5729   2.5835   2.5835   2.5836   2.5836   2.5989   2.5990
     2.8198   2.8198   2.8198   2.8198   2.8848   2.8848   2.8849   2.8849
     3.0119   3.0119   3.0499   3.0499   3.0768   3.0769   3.0769   3.0769
     3.1038   3.1038   3.1196   3.1196   3.1196   3.1197   3.1432   3.1432
     3.1432   3.1433   3.2778   3.2778   3.2779   3.2779   3.4334   3.4334
     3.4335   3.4335   3.4763   3.4764   3.5577   3.5577   3.5577   3.5577
     3.6990   3.6990   3.6990   3.6990   3.7187   3.7187   3.7328   3.7328
     3.7328   3.7328   3.8905   3.8905   4.1638   4.1638   4.1639   4.1639
     4.2011   4.2011   4.2011   4.2012   4.2445   4.2445   4.2446   4.2446
     4.5697   4.5697   4.6699   4.6699   4.6699   4.6699   4.7313   4.7313
     4.7313   4.7314   4.7659   4.7660   4.7660   4.7661   4.8768   4.8768
     4.9371   4.9371   4.9585   4.9585   4.9586   4.9586   4.9870   4.9870
     4.9870   4.9870   4.9888   4.9889   5.0912   5.0912   5.1092   5.1092
     5.1627   5.1628   5.1628   5.1629   5.2006   5.2007   5.2007   5.2008
     5.2431   5.2432   5.2432   5.2433   5.5008   5.5008   5.5009   5.5009
     5.5793   5.5793   5.5928   5.5929   5.5929   5.5929   5.7863   5.7863
     5.8666   5.8666   5.8667   5.8667   5.9046   5.9046   5.9554   5.9555
     6.1067   6.1067   6.1067   6.1068   6.2651   6.2651   6.2651   6.2651
     6.3634   6.3634   6.4889   6.4890   6.5011   6.5012   6.5012   6.5012
     6.5200   6.5200   6.5201   6.5202   6.5426   6.5427   6.5551   6.5552
     6.6025   6.6025   6.6025   6.6026   6.6257   6.6258   6.6258   6.6259
     6.6573   6.6574   6.6574   6.6574   6.6942   6.6942   6.6943   6.6944
     6.7381   6.7382   6.7666   6.7666   6.8285   6.8285   6.8285   6.8286
    10.0845  10.0845  10.1115  10.1115  10.1116  10.1116  10.3170  10.3170
    10.3328  10.3328  10.3603  10.3604  10.3604  10.3604  10.4006  10.4006
    10.4006  10.4006  10.5396  10.5396  10.5396  10.5396  10.5542  10.5543
    10.5543  10.5543  10.5767  10.5767  10.5835  10.5836  10.5836  10.5836
    10.7142  10.7142  10.7585  10.7585  10.7586  10.7586  10.7826  10.7827
    10.7827  10.7827  10.7974  10.7974  10.8243  10.8243  10.8243  10.8244
    10.8551  10.8551  10.9401  10.9402  10.9402  10.9402  11.0312  11.0312
    11.0891  11.0891  11.0891  11.0891  11.1022  11.1023  11.1023  11.1023
    11.1311  11.1311  11.2595  11.2595  11.2596  11.2596  11.5559  11.5560
    11.6284  11.6285  11.6286  11.6286  11.6815

          k = 0.0000-0.5000 0.0990 ( 25960 PWs)   bands (ev):

   -49.0862 -49.0861 -49.0825 -49.0824 -49.0757 -49.0756 -49.0694 -49.0694
   -49.0694 -49.0693 -49.0693 -49.0693 -49.0693 -49.0692 -49.0675 -49.0674
   -49.0541 -49.0540 -49.0479 -49.0479 -49.0479 -49.0478 -49.0478 -49.0478
   -49.0478 -49.0477 -49.0459 -49.0458 -49.0390 -49.0389 -49.0352 -49.0352
   -25.6158 -25.6158 -25.5919 -25.5919 -25.5788 -25.5787 -25.5787 -25.5787
   -25.5760 -25.5760 -25.5760 -25.5760 -25.5489 -25.5489 -25.5060 -25.5060
   -25.4962 -25.4962 -25.4962 -25.4962 -25.4908 -25.4908 -25.4908 -25.4908
   -25.4360 -25.4360 -25.4225 -25.4224 -25.4069 -25.4069 -25.3945 -25.3944
   -25.3680 -25.3679 -25.3679 -25.3679 -25.3643 -25.3642 -25.3642 -25.3642
   -25.3485 -25.3484 -25.3441 -25.3440 -25.3381 -25.3380 -25.3375 -25.3375
   -25.3375 -25.3374 -25.3327 -25.3327 -25.3299 -25.3299 -25.3299 -25.3299
   -25.3220 -25.3220 -25.2897 -25.2897 -25.2844 -25.2843 -25.2780 -25.2780
   -25.2511 -25.2511 -25.2461 -25.2461 -25.2394 -25.2394 -25.2394 -25.2394
   -25.2392 -25.2392 -25.2374 -25.2374 -25.2374 -25.2374 -25.2352 -25.2351
   -25.2340 -25.2340 -25.2336 -25.2335 -25.2173 -25.2173 -25.2099 -25.2099
   -25.2099 -25.2098 -25.2061 -25.2060 -25.2060 -25.2060 -25.1968 -25.1968
   -10.2178 -10.2178 -10.1404 -10.1403 -10.0029 -10.0028  -9.8556  -9.8555
    -9.6008  -9.6008  -9.6007  -9.6007  -9.5995  -9.5995  -9.5995  -9.5994
    -9.4672  -9.4671  -9.3257  -9.3256  -9.1996  -9.1996  -9.1609  -9.1609
    -9.1233  -9.1232  -9.1118  -9.1118  -9.0846  -9.0846  -9.0498  -9.0498
    -9.0498  -9.0498  -9.0439  -9.0439  -9.0439  -9.0438  -9.0349  -9.0348
    -8.8779  -8.8778  -8.8096  -8.8095  -8.8002  -8.8002  -8.8002  -8.8001
    -8.7915  -8.7914  -8.7914  -8.7914  -8.7419  -8.7419  -8.7377  -8.7377
    -8.7376  -8.7376  -8.7336  -8.7336  -8.7335  -8.7335  -8.7020  -8.7020
     2.5058   2.5058   2.5254   2.5254   2.5606   2.5607   2.5743   2.5743
     2.5744   2.5744   2.5818   2.5819   2.5819   2.5820   2.5934   2.5934
     2.8286   2.8286   2.8286   2.8286   2.8744   2.8744   2.8745   2.8745
     3.0326   3.0326   3.0519   3.0520   3.0666   3.0666   3.0872   3.0872
     3.1014   3.1015   3.1234   3.1235   3.1235   3.1236   3.1401   3.1401
     3.1401   3.1402   3.1773   3.1773   3.3732   3.3733   3.4434   3.4434
     3.4435   3.4435   3.4693   3.4693   3.5212   3.5212   3.5213   3.5213
     3.6722   3.6722   3.7044   3.7044   3.7504   3.7504   3.8019   3.8019
     3.8019   3.8019   3.8680   3.8681   4.0794   4.0794   4.0794   4.0794
     4.2260   4.2260   4.2260   4.2261   4.2430   4.2430   4.2431   4.2431
     4.5887   4.5888   4.6796   4.6796   4.6796   4.6796   4.7053   4.7053
     4.7243   4.7243   4.7243   4.7244   4.8103   4.8103   4.8644   4.8644
     4.9384   4.9384   4.9492   4.9493   4.9691   4.9692   4.9862   4.9862
     5.0487   5.0487   5.0487   5.0488   5.1150   5.1151   5.1411   5.1411
     5.1607   5.1607   5.1608   5.1608   5.1756   5.1756   5.2073   5.2074
     5.2074   5.2075   5.3211   5.3212   5.4225   5.4225   5.4225   5.4226
     5.4557   5.4557   5.5475   5.5475   5.7266   5.7267   5.7923   5.7924
     5.8355   5.8355   5.8859   5.8860   5.8989   5.8989   5.9480   5.9480
     6.1607   6.1607   6.1607   6.1607   6.2694   6.2694   6.2694   6.2695
     6.3802   6.3802   6.4645   6.4646   6.4963   6.4964   6.5049   6.5049
     6.5050   6.5050   6.5245   6.5245   6.5429   6.5429   6.5533   6.5534
     6.5534   6.5534   6.5639   6.5640   6.5709   6.5709   6.6213   6.6214
     6.6811   6.6811   6.6903   6.6904   6.7325   6.7326   6.7379   6.7380
     6.7380   6.7381   6.7563   6.7564   6.8196   6.8196   6.8197   6.8197
    10.0831  10.0832  10.0915  10.0916  10.1462  10.1463  10.2563  10.2564
    10.3654  10.3654  10.3655  10.3655  10.3934  10.3934  10.3934  10.3934
    10.3940  10.3940  10.5133  10.5134  10.5476  10.5477  10.5477  10.5477
    10.5763  10.5764  10.5787  10.5788  10.5788  10.5788  10.5791  10.5791
    10.7172  10.7172  10.7412  10.7412  10.7736  10.7736  10.7882  10.7882
    10.7883  10.7883  10.7934  10.7934  10.8173  10.8174  10.8174  10.8175
    10.8621  10.8622  10.9087  10.9087  10.9729  10.9730  11.0229  11.0229
    11.0916  11.0916  11.0916  11.0916  11.1013  11.1013  11.1013  11.1013
    11.1371  11.1371  11.2001  11.2001  11.3349  11.3350  11.5056  11.5057
    11.6331  11.6332  11.6332  11.6335  11.6658

          k = 0.0000-0.5000-0.1980 ( 25940 PWs)   bands (ev):

   -49.0848 -49.0848 -49.0847 -49.0847 -49.0716 -49.0715 -49.0715 -49.0714
   -49.0694 -49.0694 -49.0693 -49.0693 -49.0693 -49.0693 -49.0693 -49.0692
   -49.0501 -49.0500 -49.0500 -49.0499 -49.0479 -49.0479 -49.0478 -49.0478
   -49.0478 -49.0478 -49.0478 -49.0477 -49.0367 -49.0367 -49.0366 -49.0366
   -25.6067 -25.6067 -25.6066 -25.6066 -25.5774 -25.5774 -25.5774 -25.5774
   -25.5774 -25.5773 -25.5773 -25.5773 -25.5254 -25.5254 -25.5254 -25.5253
   -25.4935 -25.4934 -25.4934 -25.4934 -25.4934 -25.4934 -25.4934 -25.4934
   -25.4297 -25.4296 -25.4296 -25.4296 -25.3997 -25.3996 -25.3996 -25.3996
   -25.3664 -25.3664 -25.3664 -25.3664 -25.3663 -25.3663 -25.3663 -25.3663
   -25.3469 -25.3468 -25.3468 -25.3468 -25.3349 -25.3348 -25.3348 -25.3348
   -25.3335 -25.3335 -25.3335 -25.3335 -25.3335 -25.3335 -25.3335 -25.3335
   -25.3066 -25.3066 -25.3066 -25.3065 -25.2808 -25.2807 -25.2807 -25.2807
   -25.2489 -25.2489 -25.2489 -25.2488 -25.2386 -25.2386 -25.2386 -25.2386
   -25.2386 -25.2386 -25.2385 -25.2385 -25.2368 -25.2368 -25.2368 -25.2367
   -25.2345 -25.2345 -25.2344 -25.2344 -25.2081 -25.2081 -25.2081 -25.2081
   -25.2081 -25.2080 -25.2080 -25.2080 -25.2050 -25.2050 -25.2050 -25.2049
   -10.1881 -10.1881 -10.1880 -10.1880  -9.9245  -9.9244  -9.9244  -9.9243
    -9.6003  -9.6003  -9.6001  -9.6001  -9.6000  -9.6000  -9.6000  -9.6000
    -9.4006  -9.4005  -9.4005  -9.4004  -9.1662  -9.1661  -9.1661  -9.1661
    -9.1259  -9.1259  -9.1258  -9.1258  -9.0589  -9.0589  -9.0588  -9.0588
    -9.0469  -9.0469  -9.0469  -9.0469  -9.0468  -9.0468  -9.0468  -9.0468
    -8.8465  -8.8465  -8.8464  -8.8464  -8.7960  -8.7960  -8.7959  -8.7959
    -8.7959  -8.7959  -8.7959  -8.7958  -8.7356  -8.7356  -8.7355  -8.7354
    -8.7354  -8.7354  -8.7354  -8.7354  -8.7175  -8.7175  -8.7174  -8.7174
     2.5131   2.5131   2.5132   2.5132   2.5778   2.5779   2.5780   2.5781
     2.5781   2.5781   2.5781   2.5781   2.5791   2.5792   2.5792   2.5793
     2.8506   2.8506   2.8507   2.8507   2.8507   2.8507   2.8508   2.8508
     3.0578   3.0578   3.0579   3.0579   3.0910   3.0910   3.0911   3.0911
     3.0957   3.0957   3.0958   3.0959   3.1320   3.1321   3.1321   3.1322
     3.1322   3.1322   3.1322   3.1323   3.4399   3.4399   3.4400   3.4400
     3.4732   3.4732   3.4733   3.4733   3.4733   3.4733   3.4734   3.4734
     3.6779   3.6779   3.6780   3.6780   3.8133   3.8133   3.8134   3.8134
     3.9377   3.9377   3.9377   3.9377   3.9377   3.9378   3.9378   3.9378
     4.2380   4.2380   4.2381   4.2381   4.2382   4.2382   4.2382   4.2382
     4.6395   4.6395   4.6395   4.6396   4.7028   4.7028   4.7028   4.7029
     4.7029   4.7029   4.7029   4.7029   4.8406   4.8407   4.8408   4.8408
     4.9423   4.9424   4.9424   4.9425   4.9790   4.9791   4.9791   4.9792
     5.1349   5.1349   5.1350   5.1350   5.1418   5.1419   5.1419   5.1420
     5.1420   5.1420   5.1420   5.1420   5.2568   5.2569   5.2569   5.2570
     5.2732   5.2732   5.2733   5.2733   5.2734   5.2734   5.2734   5.2734
     5.4706   5.4707   5.4707   5.4707   5.8094   5.8095   5.8096   5.8096
     5.8271   5.8272   5.8272   5.8273   5.9276   5.9277   5.9277   5.9278
     6.2443   6.2443   6.2443   6.2443   6.2443   6.2443   6.2444   6.2444
     6.4201   6.4201   6.4201   6.4202   6.5012   6.5013   6.5013   6.5014
     6.5014   6.5014   6.5014   6.5015   6.5200   6.5200   6.5201   6.5201
     6.5422   6.5423   6.5423   6.5424   6.5880   6.5880   6.5881   6.5882
     6.7161   6.7161   6.7162   6.7163   6.7267   6.7267   6.7268   6.7268
     6.7896   6.7896   6.7897   6.7898   6.7898   6.7898   6.7898   6.7899
    10.0837  10.0837  10.0838  10.0838  10.1959  10.1960  10.1960  10.1960
    10.3776  10.3776  10.3776  10.3776  10.3776  10.3776  10.3776  10.3776
    10.4583  10.4584  10.4584  10.4585  10.5647  10.5647  10.5647  10.5647
    10.5648  10.5648  10.5648  10.5648  10.5821  10.5821  10.5822  10.5822
    10.7271  10.7271  10.7271  10.7272  10.7856  10.7856  10.7856  10.7857
    10.8022  10.8022  10.8023  10.8023  10.8023  10.8023  10.8023  10.8024
    10.8814  10.8815  10.8815  10.8815  11.0023  11.0024  11.0024  11.0024
    11.0967  11.0967  11.0967  11.0967  11.0967  11.0967  11.0968  11.0968
    11.1592  11.1592  11.1592  11.1593  11.4209  11.4209  11.4209  11.4210
    11.6457  11.6458  11.6458  11.6458  11.6459

          k = 0.2500 0.2500 0.0000 ( 25947 PWs)   bands (ev):

   -49.0892 -49.0811 -49.0810 -49.0795 -49.0795 -49.0749 -49.0748 -49.0748
   -49.0748 -49.0698 -49.0679 -49.0679 -49.0664 -49.0663 -49.0615 -49.0609
   -49.0584 -49.0579 -49.0515 -49.0514 -49.0499 -49.0499 -49.0465 -49.0445
   -49.0444 -49.0444 -49.0444 -49.0413 -49.0412 -49.0398 -49.0397 -49.0330
   -25.6231 -25.6056 -25.6055 -25.5899 -25.5765 -25.5764 -25.5764 -25.5764
   -25.5718 -25.5718 -25.5692 -25.5691 -25.5468 -25.5468 -25.5389 -25.5387
   -25.5122 -25.5122 -25.4984 -25.4657 -25.4657 -25.4611 -25.4611 -25.4611
   -25.4611 -25.4489 -25.4487 -25.4405 -25.4405 -25.3823 -25.3823 -25.3753
   -25.3753 -25.3721 -25.3623 -25.3618 -25.3616 -25.3508 -25.3507 -25.3507
   -25.3507 -25.3500 -25.3500 -25.3496 -25.3496 -25.3458 -25.3451 -25.3451
   -25.3434 -25.3434 -25.3434 -25.3434 -25.3377 -25.3279 -25.3279 -25.3108
   -25.3108 -25.3010 -25.3010 -25.3010 -25.3010 -25.2717 -25.2708 -25.2708
   -25.2572 -25.2485 -25.2485 -25.2436 -25.2436 -25.2415 -25.2414 -25.2414
   -25.2414 -25.2409 -25.2375 -25.2375 -25.2339 -25.2338 -25.2329 -25.2329
   -25.2325 -25.2325 -25.2231 -25.2229 -25.2220 -25.2220 -25.2170 -25.2170
   -25.2170 -25.2170 -25.2101 -25.2101 -25.1982 -25.1956 -25.1955 -25.1943
   -10.3252 -10.1517 -10.1516  -9.9622  -9.9622  -9.8717  -9.8717  -9.8716
    -9.8716  -9.7564  -9.7564  -9.7365  -9.7365  -9.5095  -9.4307  -9.4307
    -9.3317  -9.3316  -9.2496  -9.2485  -9.2071  -9.2071  -9.1989  -9.1664
    -9.1428  -9.1427  -9.1179  -9.1179  -9.1178  -9.1178  -9.0749  -9.0749
    -9.0713  -9.0713  -8.9953  -8.9897  -8.9897  -8.9656  -8.9655  -8.9655
    -8.9655  -8.9537  -8.9537  -8.9402  -8.9402  -8.8273  -8.8084  -8.8084
    -8.7990  -8.7989  -8.7948  -8.7947  -8.7445  -8.7445  -8.7444  -8.7444
    -8.7346  -8.7334  -8.7076  -8.6999  -8.6998  -8.6597  -8.6597  -8.6224
     2.4740   2.4740   2.4847   2.5263   2.5264   2.5288   2.5289   2.5289
     2.5289   2.5427   2.5428   2.6072   2.6072   2.6547   2.6547   2.7702
     2.7879   2.7880   2.7895   2.8396   2.8397   2.8828   2.8828   2.9015
     2.9015   2.9016   2.9016   2.9038   2.9039   2.9145   2.9190   2.9190
     2.9940   2.9988   3.0175   3.0175   3.2420   3.2420   3.3671   3.3672
     3.3672   3.3672   3.4071   3.4072   3.4517   3.4518   3.5491   3.5496
     3.5652   3.5655   3.5750   3.5750   3.5980   3.5981   3.5981   3.5981
     3.7086   3.7087   3.7291   3.7291   3.8971   3.9513   3.9523   3.9523
     3.9849   3.9849   4.0245   4.0670   4.0671   4.0962   4.0963   4.1687
     4.1688   4.1688   4.1688   4.1725   4.1859   4.1860   4.2335   4.2335
     4.2589   4.2590   4.3016   4.3016   4.3560   4.3565   4.3573   4.5584
     4.5584   4.5816   4.5816   4.5817   4.5817   4.6428   4.6924   4.6924
     4.7118   4.7119   4.7709   4.7945   4.7945   4.8056   4.8057   4.9944
     5.0084   5.0084   5.0089   5.0089   5.0090   5.0090   5.0956   5.0956
     5.1054   5.1055   5.1310   5.2257   5.4402   5.4402   5.4969   5.4970
     5.4970   5.4970   5.6121   5.6122   5.6295   5.6302   5.6459   5.6460
     5.6907   5.6907   5.6908   5.6908   5.8417   5.8418   5.8608   5.8608
     5.8799   5.8799   6.0290   6.0290   6.1197   6.1456   6.1465   6.1744
     6.1759   6.1759   6.1854   6.1854   6.2016   6.2016   6.2017   6.2017
     6.2149   6.2263   6.2263   6.2465   6.3544   6.3545   6.3909   6.3910
     6.4361   6.4361   6.4605   6.4605   6.4790   6.4790   6.4910   6.4960
     6.4960   6.4961   6.4961   6.5126   6.5126   6.5169   6.5169   6.5586
     6.6612   6.6612   6.6956   6.6957   6.6957   6.6957   6.7396   6.7397
     6.7810   6.7811   6.8320   6.8320   6.8838   6.8846   6.9003   7.0041
     9.9678   9.9850   9.9850  10.0893  10.0896  10.1964  10.1965  10.2143
    10.3166  10.3646  10.3646  10.3646  10.3646  10.3773  10.3773  10.4159
    10.4159  10.4312  10.4312  10.4718  10.4719  10.5236  10.5236  10.5654
    10.5654  10.5655  10.5655  10.6137  10.6137  10.6814  10.6963  10.7069
    10.7069  10.7424  10.7424  10.7711  10.7711  10.7929  10.7929  10.7946
    10.7946  10.7946  10.7947  10.9292  10.9292  10.9332  10.9332  10.9342
    10.9344  10.9850  10.9939  10.9939  10.9947  10.9947  11.0478  11.0478
    11.0755  11.0756  11.1041  11.1041  11.1042  11.1042  11.1254  11.2174
    11.3517  11.3517  11.3518  11.3518  11.3574  11.4052  11.4052  11.4117
    11.4117  11.4271  11.4297  11.4312  11.4323

          k = 0.2500 0.2500 0.0990 ( 25959 PWs)   bands (ev):

   -49.0887 -49.0845 -49.0792 -49.0792 -49.0768 -49.0768 -49.0767 -49.0726
   -49.0726 -49.0695 -49.0686 -49.0686 -49.0678 -49.0667 -49.0646 -49.0604
   -49.0559 -49.0557 -49.0517 -49.0507 -49.0507 -49.0484 -49.0467 -49.0467
   -49.0466 -49.0455 -49.0425 -49.0425 -49.0401 -49.0401 -49.0378 -49.0335
   -25.6198 -25.6033 -25.6032 -25.5922 -25.5889 -25.5881 -25.5880 -25.5792
   -25.5648 -25.5648 -25.5634 -25.5489 -25.5489 -25.5468 -25.5417 -25.5318
   -25.5183 -25.5070 -25.4996 -25.4787 -25.4665 -25.4665 -25.4656 -25.4656
   -25.4545 -25.4545 -25.4422 -25.4422 -25.4236 -25.3924 -25.3746 -25.3746
   -25.3743 -25.3722 -25.3679 -25.3638 -25.3556 -25.3527 -25.3519 -25.3519
   -25.3507 -25.3507 -25.3505 -25.3491 -25.3490 -25.3461 -25.3455 -25.3455
   -25.3454 -25.3452 -25.3436 -25.3390 -25.3294 -25.3236 -25.3235 -25.3090
   -25.3089 -25.3056 -25.3055 -25.3017 -25.3017 -25.2873 -25.2707 -25.2664
   -25.2561 -25.2483 -25.2478 -25.2478 -25.2440 -25.2440 -25.2401 -25.2395
   -25.2392 -25.2391 -25.2376 -25.2376 -25.2369 -25.2358 -25.2342 -25.2341
   -25.2295 -25.2249 -25.2222 -25.2222 -25.2213 -25.2213 -25.2211 -25.2206
   -25.2150 -25.2101 -25.2101 -25.2062 -25.1993 -25.1978 -25.1974 -25.1974
   -10.3138 -10.2253 -10.0622  -9.9558  -9.9558  -9.9084  -9.9084  -9.8503
    -9.8316  -9.8316  -9.7666  -9.7666  -9.6233  -9.5042  -9.4639  -9.4171
    -9.3908  -9.2981  -9.2626  -9.2009  -9.1986  -9.1986  -9.1972  -9.1753
    -9.1657  -9.1467  -9.1467  -9.1130  -9.1126  -9.0950  -9.0950  -9.0733
    -9.0733  -9.0428  -9.0355  -9.0011  -8.9654  -8.9653  -8.9606  -8.9606
    -8.9558  -8.9558  -8.9438  -8.9438  -8.9410  -8.8433  -8.8245  -8.8068
    -8.8021  -8.8021  -8.7815  -8.7654  -8.7654  -8.7611  -8.7514  -8.7260
    -8.7260  -8.7156  -8.7139  -8.7029  -8.7028  -8.6774  -8.6444  -8.6250
     2.4778   2.4778   2.4891   2.5064   2.5064   2.5147   2.5320   2.5347
     2.5541   2.5541   2.5600   2.5992   2.5992   2.6189   2.6910   2.7563
     2.7872   2.7891   2.7926   2.8193   2.8610   2.8846   2.8846   2.8942
     2.8955   2.8955   2.9068   2.9068   2.9092   2.9137   2.9163   2.9163
     3.0171   3.0276   3.0465   3.0465   3.1473   3.2361   3.2361   3.2456
     3.3404   3.4561   3.4561   3.4621   3.4621   3.4994   3.5200   3.5212
     3.5843   3.5856   3.6222   3.6222   3.6279   3.6369   3.6369   3.6564
     3.6646   3.7168   3.7168   3.7769   3.8610   3.8801   3.8915   3.8915
     3.9229   4.0266   4.0288   4.0517   4.0826   4.1005   4.1040   4.1575
     4.1575   4.1712   4.1776   4.1776   4.1857   4.1930   4.1931   4.1937
     4.2304   4.2788   4.2788   4.3261   4.3489   4.3489   4.4981   4.5128
     4.5128   4.5421   4.5804   4.5998   4.6483   4.6483   4.7018   4.7241
     4.7241   4.7315   4.7464   4.7654   4.7654   4.7658   4.8808   4.9156
     4.9156   5.0383   5.0676   5.0676   5.0789   5.0789   5.0963   5.0964
     5.0964   5.1586   5.1789   5.2195   5.4090   5.4090   5.4431   5.4431
     5.4729   5.4740   5.4740   5.4974   5.5397   5.6004   5.6641   5.6641
     5.7896   5.8015   5.8239   5.8368   5.8412   5.8412   5.8489   5.8489
     5.8718   5.9077   5.9663   6.0519   6.0548   6.0982   6.1250   6.1250
     6.1863   6.1863   6.1889   6.1942   6.1942   6.2113   6.2113   6.2232
     6.2261   6.2274   6.2274   6.2469   6.2471   6.3727   6.3983   6.4015
     6.4302   6.4492   6.4492   6.4724   6.4724   6.4812   6.4889   6.4943
     6.4943   6.4967   6.5144   6.5144   6.5346   6.5590   6.5590   6.5851
     6.6641   6.6641   6.6721   6.6721   6.6929   6.6930   6.6984   6.7720
     6.7856   6.7950   6.8157   6.8474   6.8501   6.8920   6.9249   6.9734
     9.9683   9.9753  10.0010  10.0552  10.1243  10.1796  10.2064  10.2136
    10.3276  10.3603  10.3603  10.3734  10.3734  10.3780  10.3780  10.3897
    10.4204  10.4204  10.4279  10.4456  10.5169  10.5299  10.5299  10.5509
    10.5509  10.5834  10.5834  10.6112  10.6112  10.6488  10.6830  10.7039
    10.7082  10.7301  10.7734  10.7734  10.7873  10.7873  10.7900  10.7939
    10.7939  10.7980  10.7980  10.8919  10.9169  10.9192  10.9494  10.9513
    10.9643  10.9806  10.9866  11.0056  11.0057  11.0080  11.0218  11.0742
    11.0743  11.0817  11.0817  11.0937  11.1098  11.1099  11.1099  11.1925
    11.3611  11.3612  11.3632  11.3633  11.3787  11.3994  11.3994  11.4048
    11.4049  11.4272  11.4288  11.4291  11.4326

          k = 0.2500 0.2500-0.1980 ( 25976 PWs)   bands (ev):

   -49.0871 -49.0871 -49.0783 -49.0782 -49.0782 -49.0782 -49.0720 -49.0719
   -49.0704 -49.0704 -49.0704 -49.0703 -49.0689 -49.0688 -49.0626 -49.0625
   -49.0537 -49.0536 -49.0505 -49.0504 -49.0490 -49.0489 -49.0489 -49.0488
   -49.0474 -49.0473 -49.0411 -49.0410 -49.0410 -49.0410 -49.0352 -49.0351
   -25.6095 -25.6094 -25.5974 -25.5973 -25.5973 -25.5973 -25.5852 -25.5852
   -25.5552 -25.5552 -25.5552 -25.5551 -25.5549 -25.5549 -25.5250 -25.5250
   -25.5105 -25.5105 -25.5027 -25.5026 -25.4673 -25.4673 -25.4673 -25.4673
   -25.4476 -25.4476 -25.4475 -25.4475 -25.4053 -25.4053 -25.3733 -25.3733
   -25.3722 -25.3721 -25.3682 -25.3681 -25.3532 -25.3532 -25.3520 -25.3520
   -25.3519 -25.3519 -25.3497 -25.3496 -25.3472 -25.3471 -25.3471 -25.3471
   -25.3443 -25.3443 -25.3423 -25.3422 -25.3143 -25.3143 -25.3142 -25.3142
   -25.3095 -25.3094 -25.3052 -25.3052 -25.3052 -25.3052 -25.2683 -25.2682
   -25.2529 -25.2529 -25.2463 -25.2463 -25.2462 -25.2462 -25.2382 -25.2382
   -25.2381 -25.2381 -25.2381 -25.2381 -25.2360 -25.2360 -25.2359 -25.2358
   -25.2274 -25.2274 -25.2226 -25.2226 -25.2226 -25.2226 -25.2184 -25.2184
   -25.2073 -25.2073 -25.2027 -25.2027 -25.2026 -25.2026 -25.2020 -25.2020
   -10.2801 -10.2800  -9.9604  -9.9604  -9.9374  -9.9374  -9.9373  -9.9373
    -9.7941  -9.7941  -9.7940  -9.7940  -9.5155  -9.5154  -9.4889  -9.4888
    -9.3460  -9.3460  -9.2132  -9.2131  -9.1808  -9.1807  -9.1762  -9.1761
    -9.1760  -9.1760  -9.1550  -9.1550  -9.0805  -9.0805  -9.0805  -9.0805
    -9.0770  -9.0770  -9.0177  -9.0176  -8.9610  -8.9610  -8.9610  -8.9609
    -8.9522  -8.9522  -8.9521  -8.9521  -8.8915  -8.8914  -8.8172  -8.8172
    -8.7861  -8.7861  -8.7860  -8.7860  -8.7672  -8.7672  -8.7322  -8.7321
    -8.7118  -8.7118  -8.7117  -8.7117  -8.6964  -8.6964  -8.6326  -8.6325
     2.4888   2.4888   2.4889   2.4889   2.5005   2.5006   2.5330   2.5331
     2.5791   2.5791   2.5792   2.5792   2.5862   2.5862   2.7261   2.7261
     2.7880   2.7881   2.8029   2.8030   2.8798   2.8799   2.8893   2.8893
     2.8894   2.8894   2.9115   2.9115   2.9116   2.9116   2.9119   2.9120
     3.0689   3.0690   3.1161   3.1162   3.1238   3.1239   3.1239   3.1239
     3.4292   3.4293   3.4669   3.4669   3.4670   3.4670   3.5036   3.5036
     3.6179   3.6179   3.6812   3.6812   3.6828   3.6828   3.6830   3.6830
     3.7538   3.7538   3.7538   3.7538   3.7709   3.7709   3.8547   3.8548
     3.8820   3.8820   4.0386   4.0386   4.0960   4.0960   4.1575   4.1575
     4.1576   4.1576   4.1629   4.1630   4.1925   4.1925   4.2326   4.2326
     4.2327   4.2327   4.2480   4.2481   4.4385   4.4385   4.4386   4.4386
[...]
   -25.2507 -25.2507 -25.2507 -25.2507 -25.2445 -25.2445 -25.2445 -25.2445
   -25.2363 -25.2363 -25.2363 -25.2363 -25.2337 -25.2337 -25.2337 -25.2337
   -25.2318 -25.2318 -25.2317 -25.2317 -25.2186 -25.2186 -25.2186 -25.2186
   -25.2007 -25.2007 -25.2006 -25.2006 -25.1989 -25.1989 -25.1989 -25.1989
   -10.1129 -10.1128 -10.1128 -10.1127  -9.8467  -9.8466  -9.8466  -9.8466
    -9.7265  -9.7265  -9.7264  -9.7264  -9.5724  -9.5724  -9.5723  -9.5723
    -9.3855  -9.3855  -9.3854  -9.3854  -9.1730  -9.1729  -9.1729  -9.1728
    -9.1444  -9.1444  -9.1444  -9.1444  -9.0909  -9.0909  -9.0908  -9.0908
    -9.0375  -9.0375  -9.0375  -9.0375  -9.0165  -9.0165  -9.0165  -9.0164
    -8.8982  -8.8982  -8.8982  -8.8982  -8.8491  -8.8491  -8.8491  -8.8491
    -8.8332  -8.8332  -8.8332  -8.8331  -8.7469  -8.7469  -8.7469  -8.7468
    -8.7027  -8.7027  -8.7026  -8.7026  -8.6646  -8.6646  -8.6645  -8.6645
     2.4899   2.4900   2.4900   2.4900   2.4991   2.4992   2.4992   2.4992
     2.5192   2.5193   2.5193   2.5193   2.5624   2.5624   2.5624   2.5625
     2.6019   2.6019   2.6019   2.6019   2.7297   2.7297   2.7297   2.7298
     2.8715   2.8716   2.8716   2.8717   2.8938   2.8939   2.8939   2.8940
     3.0977   3.0977   3.0978   3.0978   3.1214   3.1214   3.1215   3.1215
     3.4985   3.4986   3.4986   3.4987   3.5646   3.5646   3.5647   3.5647
     3.7196   3.7196   3.7197   3.7197   3.7777   3.7777   3.7777   3.7777
     3.8083   3.8083   3.8084   3.8084   3.8657   3.8657   3.8658   3.8658
     4.0160   4.0160   4.0160   4.0161   4.1569   4.1570   4.1570   4.1571
     4.2103   4.2104   4.2104   4.2104   4.3326   4.3326   4.3326   4.3326
     4.4705   4.4705   4.4705   4.4706   4.5911   4.5912   4.5912   4.5913
     4.6284   4.6284   4.6284   4.6285   4.6725   4.6726   4.6726   4.6726
     4.8677   4.8677   4.8677   4.8678   5.0593   5.0593   5.0594   5.0594
     5.1272   5.1273   5.1273   5.1274   5.1498   5.1498   5.1499   5.1499
     5.1865   5.1865   5.1866   5.1866   5.3207   5.3208   5.3208   5.3208
     5.3441   5.3441   5.3442   5.3442   5.4458   5.4458   5.4458   5.4458
     5.5795   5.5795   5.5796   5.5796   5.7409   5.7409   5.7410   5.7410
     5.7637   5.7637   5.7637   5.7637   6.0082   6.0082   6.0083   6.0083
     6.1814   6.1814   6.1815   6.1815   6.1924   6.1925   6.1925   6.1925
     6.2132   6.2133   6.2133   6.2134   6.3589   6.3589   6.3590   6.3590
     6.4781   6.4781   6.4781   6.4781   6.4944   6.4944   6.4944   6.4944
     6.5481   6.5481   6.5482   6.5482   6.6117   6.6117   6.6118   6.6118
     6.6577   6.6577   6.6578   6.6578   6.8030   6.8031   6.8031   6.8032
     6.8465   6.8465   6.8465   6.8465   6.8490   6.8490   6.8491   6.8492
    10.2222  10.2222  10.2222  10.2223  10.2562  10.2563  10.2563  10.2563
    10.2949  10.2949  10.2949  10.2949  10.3848  10.3848  10.3848  10.3848
    10.4627  10.4627  10.4627  10.4628  10.4779  10.4779  10.4779  10.4780
    10.5191  10.5192  10.5192  10.5192  10.5653  10.5653  10.5653  10.5653
    10.6671  10.6671  10.6672  10.6672  10.7773  10.7773  10.7773  10.7774
    10.7787  10.7787  10.7787  10.7788  10.7898  10.7899  10.7899  10.7899
    11.0151  11.0151  11.0151  11.0151  11.0256  11.0257  11.0257  11.0257
    11.0644  11.0644  11.0644  11.0644  11.0707  11.0707  11.0708  11.0708
    11.0981  11.0981  11.0981  11.0981  11.2478  11.2478  11.2478  11.2479
    11.4571  11.4572  11.4572  11.4572  11.5641

          k =-0.5000-0.5000 0.0000 ( 25848 PWs)   bands (ev):

   -49.0811 -49.0811 -49.0811 -49.0810 -49.0749 -49.0749 -49.0749 -49.0748
   -49.0747 -49.0747 -49.0747 -49.0747 -49.0599 -49.0599 -49.0599 -49.0598
   -49.0594 -49.0594 -49.0594 -49.0592 -49.0445 -49.0444 -49.0444 -49.0443
   -49.0443 -49.0443 -49.0443 -49.0442 -49.0381 -49.0381 -49.0381 -49.0380
   -25.6111 -25.6111 -25.6111 -25.6110 -25.5734 -25.5733 -25.5733 -25.5732
   -25.5732 -25.5732 -25.5732 -25.5732 -25.4988 -25.4987 -25.4987 -25.4986
   -25.4986 -25.4985 -25.4985 -25.4985 -25.4504 -25.4504 -25.4504 -25.4503
   -25.4503 -25.4503 -25.4503 -25.4503 -25.4290 -25.4289 -25.4289 -25.4289
   -25.3643 -25.3643 -25.3643 -25.3643 -25.3643 -25.3642 -25.3642 -25.3642
   -25.3566 -25.3566 -25.3566 -25.3566 -25.3451 -25.3451 -25.3451 -25.3451
   -25.3450 -25.3450 -25.3450 -25.3450 -25.3063 -25.3063 -25.3063 -25.3063
   -25.3041 -25.3041 -25.3041 -25.3041 -25.3041 -25.3040 -25.3040 -25.3040
   -25.2536 -25.2536 -25.2536 -25.2536 -25.2411 -25.2411 -25.2411 -25.2411
   -25.2411 -25.2411 -25.2410 -25.2410 -25.2299 -25.2299 -25.2299 -25.2299
   -25.2298 -25.2298 -25.2297 -25.2297 -25.2140 -25.2139 -25.2139 -25.2139
   -25.2139 -25.2139 -25.2139 -25.2138 -25.1879 -25.1878 -25.1878 -25.1878
    -9.9621  -9.9621  -9.9621  -9.9620  -9.8243  -9.8243  -9.8242  -9.8242
    -9.8242  -9.8242  -9.8242  -9.8241  -9.4971  -9.4971  -9.4971  -9.4971
    -9.4967  -9.4967  -9.4967  -9.4966  -9.1834  -9.1834  -9.1834  -9.1833
    -9.1833  -9.1833  -9.1833  -9.1832  -9.0590  -9.0590  -9.0590  -9.0589
    -9.0147  -9.0147  -9.0147  -9.0147  -8.9763  -8.9763  -8.9763  -8.9763
    -8.9762  -8.9762  -8.9762  -8.9762  -8.8642  -8.8642  -8.8641  -8.8641
    -8.8637  -8.8637  -8.8637  -8.8637  -8.7201  -8.7201  -8.7201  -8.7200
    -8.7200  -8.7200  -8.7200  -8.7200  -8.6504  -8.6504  -8.6504  -8.6504
     2.4754   2.4755   2.4755   2.4755   2.4811   2.4811   2.4811   2.4812
     2.4812   2.4812   2.4812   2.4812   2.5406   2.5407   2.5407   2.5407
     2.5407   2.5408   2.5408   2.5408   2.6710   2.6711   2.6711   2.6711
     2.6712   2.6712   2.6712   2.6712   2.7480   2.7481   2.7481   2.7481
     3.0129   3.0129   3.0129   3.0129   3.3641   3.3641   3.3641   3.3641
     3.3642   3.3642   3.3642   3.3642   3.7333   3.7334   3.7334   3.7334
     3.7339   3.7339   3.7339   3.7339   3.8017   3.8017   3.8017   3.8017
     3.8017   3.8017   3.8017   3.8017   4.1063   4.1063   4.1063   4.1063
     4.2045   4.2045   4.2046   4.2046   4.2046   4.2046   4.2046   4.2046
     4.3581   4.3581   4.3581   4.3582   4.3720   4.3721   4.3721   4.3721
     4.3722   4.3723   4.3723   4.3723   4.9204   4.9204   4.9205   4.9205
     4.9205   4.9205   4.9205   4.9205   4.9331   4.9331   4.9331   4.9332
     4.9586   4.9587   4.9587   4.9588   5.0116   5.0116   5.0116   5.0117
     5.0117   5.0117   5.0117   5.0117   5.1358   5.1359   5.1359   5.1359
     5.1359   5.1359   5.1359   5.1360   5.2750   5.2750   5.2750   5.2751
     5.2751   5.2751   5.2751   5.2751   5.2912   5.2912   5.2912   5.2912
     5.3725   5.3726   5.3726   5.3726   5.7382   5.7383   5.7383   5.7383
     5.7384   5.7384   5.7384   5.7384   6.0262   6.0263   6.0263   6.0263
     6.0343   6.0344   6.0344   6.0344   6.0348   6.0348   6.0348   6.0349
     6.0764   6.0765   6.0765   6.0765   6.0765   6.0765   6.0765   6.0766
     6.5038   6.5039   6.5039   6.5039   6.5039   6.5039   6.5039   6.5039
     6.6702   6.6703   6.6703   6.6703   6.6710   6.6710   6.6710   6.6710
     6.7017   6.7017   6.7017   6.7017   6.8838   6.8838   6.8838   6.8838
     6.8838   6.8839   6.8839   6.8839   6.9101   6.9102   6.9102   6.9102
    10.2352  10.2352  10.2352  10.2352  10.2739  10.2739  10.2739  10.2739
    10.2739  10.2739  10.2739  10.2739  10.4057  10.4058  10.4058  10.4058
    10.4058  10.4059  10.4059  10.4059  10.5012  10.5012  10.5012  10.5012
    10.5813  10.5814  10.5814  10.5814  10.5814  10.5814  10.5814  10.5815
    10.6490  10.6491  10.6491  10.6491  10.6491  10.6491  10.6491  10.6491
    10.7769  10.7770  10.7770  10.7770  10.8577  10.8577  10.8577  10.8577
    10.8578  10.8578  10.8578  10.8578  11.0436  11.0436  11.0436  11.0436
    11.0437  11.0437  11.0437  11.0437  11.1018  11.1018  11.1018  11.1018
    11.1243  11.1243  11.1243  11.1243  11.2784  11.2784  11.2784  11.2784
    11.2784  11.2784  11.2784  11.2785  11.3320

          k =-0.5000-0.5000 0.0990 ( 25860 PWs)   bands (ev):

   -49.0807 -49.0807 -49.0807 -49.0806 -49.0775 -49.0775 -49.0775 -49.0774
   -49.0716 -49.0715 -49.0715 -49.0714 -49.0638 -49.0638 -49.0638 -49.0637
   -49.0554 -49.0554 -49.0554 -49.0553 -49.0477 -49.0477 -49.0477 -49.0475
   -49.0417 -49.0417 -49.0417 -49.0416 -49.0385 -49.0385 -49.0385 -49.0384
   -25.6089 -25.6089 -25.6089 -25.6088 -25.5894 -25.5894 -25.5894 -25.5893
   -25.5546 -25.5546 -25.5546 -25.5545 -25.5160 -25.5159 -25.5159 -25.5159
   -25.4834 -25.4834 -25.4834 -25.4834 -25.4596 -25.4595 -25.4595 -25.4595
   -25.4421 -25.4421 -25.4421 -25.4421 -25.4306 -25.4306 -25.4306 -25.4305
   -25.3640 -25.3640 -25.3640 -25.3640 -25.3623 -25.3623 -25.3623 -25.3623
   -25.3575 -25.3575 -25.3575 -25.3575 -25.3550 -25.3550 -25.3550 -25.3550
   -25.3324 -25.3324 -25.3324 -25.3324 -25.3094 -25.3094 -25.3093 -25.3093
   -25.3058 -25.3058 -25.3058 -25.3058 -25.3031 -25.3031 -25.3030 -25.3030
   -25.2527 -25.2527 -25.2526 -25.2526 -25.2458 -25.2458 -25.2458 -25.2458
   -25.2371 -25.2371 -25.2371 -25.2371 -25.2316 -25.2315 -25.2315 -25.2315
   -25.2285 -25.2284 -25.2284 -25.2284 -25.2214 -25.2214 -25.2214 -25.2213
   -25.2050 -25.2050 -25.2050 -25.2049 -25.1902 -25.1902 -25.1902 -25.1901
    -9.9531  -9.9531  -9.9531  -9.9531  -9.8827  -9.8827  -9.8827  -9.8827
    -9.7533  -9.7533  -9.7533  -9.7532  -9.5861  -9.5861  -9.5861  -9.5861
    -9.4087  -9.4087  -9.4087  -9.4086  -9.2489  -9.2489  -9.2489  -9.2489
    -9.1302  -9.1302  -9.1302  -9.1302  -9.0672  -9.0672  -9.0672  -9.0672
    -9.0122  -9.0122  -9.0122  -9.0121  -8.9930  -8.9930  -8.9930  -8.9930
    -8.9547  -8.9547  -8.9547  -8.9547  -8.8979  -8.8979  -8.8979  -8.8979
    -8.8274  -8.8274  -8.8274  -8.8274  -8.7536  -8.7536  -8.7536  -8.7535
    -8.6913  -8.6913  -8.6913  -8.6912  -8.6552  -8.6552  -8.6552  -8.6551
     2.4758   2.4758   2.4758   2.4759   2.4783   2.4784   2.4784   2.4784
     2.4868   2.4868   2.4868   2.4869   2.5155   2.5155   2.5155   2.5156
     2.5716   2.5716   2.5716   2.5717   2.6395   2.6395   2.6395   2.6396
     2.6991   2.6992   2.6992   2.6992   2.7408   2.7409   2.7409   2.7409
     3.0391   3.0391   3.0391   3.0392   3.2246   3.2246   3.2246   3.2246
     3.5153   3.5153   3.5153   3.5153   3.7195   3.7195   3.7195   3.7195
     3.7290   3.7290   3.7290   3.7290   3.7532   3.7532   3.7532   3.7532
     3.8781   3.8781   3.8781   3.8781   4.0656   4.0656   4.0656   4.0656
     4.1586   4.1586   4.1586   4.1586   4.2276   4.2276   4.2276   4.2276
     4.2614   4.2614   4.2614   4.2615   4.3461   4.3462   4.3462   4.3462
     4.5403   4.5403   4.5403   4.5404   4.8287   4.8288   4.8288   4.8288
     4.9551   4.9552   4.9552   4.9552   4.9640   4.9641   4.9641   4.9641
     4.9675   4.9675   4.9675   4.9675   4.9954   4.9954   4.9954   4.9954
     5.0372   5.0372   5.0372   5.0373   5.1011   5.1011   5.1011   5.1012
     5.1708   5.1709   5.1709   5.1709   5.2401   5.2401   5.2401   5.2402
     5.3096   5.3097   5.3097   5.3097   5.3252   5.3252   5.3252   5.3252
     5.3640   5.3641   5.3641   5.3641   5.5952   5.5952   5.5952   5.5953
     5.8187   5.8187   5.8187   5.8187   5.9448   5.9448   5.9448   5.9448
     6.0177   6.0178   6.0178   6.0178   6.0218   6.0218   6.0218   6.0218
     6.1431   6.1431   6.1431   6.1432   6.2156   6.2156   6.2156   6.2156
     6.3878   6.3878   6.3878   6.3878   6.5425   6.5426   6.5426   6.5426
     6.5999   6.5999   6.5999   6.5999   6.6942   6.6942   6.6942   6.6942
     6.7657   6.7657   6.7657   6.7658   6.8668   6.8668   6.8668   6.8669
     6.8897   6.8897   6.8897   6.8897   6.9048   6.9049   6.9049   6.9049
    10.2363  10.2363  10.2363  10.2364  10.2539  10.2539  10.2539  10.2539
    10.3023  10.3023  10.3023  10.3023  10.3718  10.3718  10.3718  10.3718
    10.4397  10.4397  10.4397  10.4397  10.5113  10.5113  10.5113  10.5113
    10.5247  10.5247  10.5247  10.5247  10.5914  10.5914  10.5915  10.5915
    10.6438  10.6439  10.6439  10.6439  10.7091  10.7091  10.7091  10.7091
    10.7563  10.7563  10.7563  10.7563  10.8121  10.8121  10.8121  10.8121
    10.9064  10.9064  10.9065  10.9065  11.0045  11.0045  11.0045  11.0045
    11.0734  11.0734  11.0735  11.0735  11.1031  11.1031  11.1031  11.1031
    11.1378  11.1379  11.1379  11.1379  11.2317  11.2317  11.2317  11.2317
    11.3124  11.3124  11.3124  11.3124  11.3328

          k =-0.5000-0.5000-0.1980 ( 25864 PWs)   bands (ev):

   -49.0795 -49.0795 -49.0795 -49.0795 -49.0794 -49.0794 -49.0794 -49.0793
   -49.0679 -49.0679 -49.0679 -49.0678 -49.0678 -49.0678 -49.0678 -49.0677
   -49.0515 -49.0514 -49.0514 -49.0514 -49.0513 -49.0513 -49.0513 -49.0512
   -49.0398 -49.0397 -49.0397 -49.0397 -49.0397 -49.0397 -49.0396 -49.0396
   -25.6013 -25.6012 -25.6012 -25.6012 -25.6012 -25.6012 -25.6012 -25.6011
   -25.5350 -25.5350 -25.5350 -25.5350 -25.5349 -25.5349 -25.5349 -25.5349
   -25.4709 -25.4709 -25.4709 -25.4709 -25.4708 -25.4708 -25.4708 -25.4708
   -25.4351 -25.4351 -25.4351 -25.4351 -25.4351 -25.4351 -25.4351 -25.4351
   -25.3614 -25.3614 -25.3614 -25.3614 -25.3614 -25.3614 -25.3614 -25.3614
   -25.3598 -25.3597 -25.3597 -25.3597 -25.3597 -25.3597 -25.3597 -25.3597
   -25.3197 -25.3197 -25.3196 -25.3196 -25.3196 -25.3196 -25.3196 -25.3196
   -25.3040 -25.3040 -25.3039 -25.3039 -25.3039 -25.3039 -25.3039 -25.3039
   -25.2497 -25.2497 -25.2497 -25.2496 -25.2496 -25.2496 -25.2496 -25.2496
   -25.2339 -25.2339 -25.2339 -25.2339 -25.2339 -25.2339 -25.2339 -25.2339
   -25.2263 -25.2263 -25.2263 -25.2263 -25.2263 -25.2263 -25.2263 -25.2263
   -25.1963 -25.1962 -25.1962 -25.1962 -25.1962 -25.1962 -25.1962 -25.1961
    -9.9263  -9.9263  -9.9263  -9.9263  -9.9262  -9.9262  -9.9262  -9.9262
    -9.6729  -9.6729  -9.6729  -9.6728  -9.6728  -9.6728  -9.6728  -9.6728
    -9.3250  -9.3250  -9.3250  -9.3250  -9.3249  -9.3249  -9.3249  -9.3249
    -9.0912  -9.0912  -9.0912  -9.0912  -9.0911  -9.0911  -9.0911  -9.0911
    -9.0049  -9.0049  -9.0049  -9.0049  -9.0049  -9.0049  -9.0049  -9.0048
    -8.9285  -8.9285  -8.9285  -8.9285  -8.9285  -8.9284  -8.9284  -8.9284
    -8.7901  -8.7901  -8.7901  -8.7901  -8.7901  -8.7901  -8.7901  -8.7901
    -8.6692  -8.6692  -8.6692  -8.6691  -8.6691  -8.6691  -8.6691  -8.6690
     2.4768   2.4768   2.4768   2.4768   2.4768   2.4769   2.4769   2.4769
     2.4976   2.4976   2.4976   2.4976   2.4977   2.4977   2.4977   2.4977
     2.6055   2.6055   2.6055   2.6055   2.6056   2.6056   2.6056   2.6056
     2.7230   2.7230   2.7230   2.7230   2.7231   2.7231   2.7231   2.7231
     3.1129   3.1129   3.1129   3.1129   3.1129   3.1129   3.1129   3.1130
     3.6475   3.6475   3.6475   3.6475   3.6475   3.6475   3.6475   3.6476
     3.7312   3.7312   3.7313   3.7313   3.7313   3.7313   3.7313   3.7313
     3.9744   3.9744   3.9744   3.9744   3.9745   3.9745   3.9745   3.9745
     4.1535   4.1535   4.1535   4.1535   4.1536   4.1536   4.1536   4.1536
     4.3120   4.3121   4.3121   4.3121   4.3121   4.3121   4.3121   4.3122
     4.6987   4.6987   4.6987   4.6987   4.6987   4.6987   4.6987   4.6987
     4.9675   4.9675   4.9675   4.9676   4.9676   4.9676   4.9676   4.9677
     4.9899   4.9899   4.9899   4.9900   4.9900   4.9900   4.9900   4.9901
     5.0676   5.0676   5.0676   5.0676   5.0677   5.0677   5.0677   5.0677
     5.2054   5.2054   5.2054   5.2054   5.2055   5.2055   5.2055   5.2055
     5.3411   5.3411   5.3411   5.3412   5.3412   5.3412   5.3412   5.3413
     5.4345   5.4345   5.4345   5.4345   5.4346   5.4346   5.4346   5.4346
     5.8757   5.8757   5.8757   5.8757   5.8758   5.8758   5.8758   5.8758
     6.0130   6.0130   6.0130   6.0130   6.0131   6.0131   6.0131   6.0132
     6.2638   6.2638   6.2638   6.2638   6.2638   6.2638   6.2638   6.2639
     6.3855   6.3855   6.3855   6.3855   6.3855   6.3855   6.3855   6.3855
     6.6641   6.6641   6.6641   6.6641   6.6641   6.6641   6.6641   6.6642
     6.8296   6.8297   6.8297   6.8297   6.8297   6.8297   6.8297   6.8297
     6.8952   6.8953   6.8953   6.8953   6.8953   6.8954   6.8954   6.8954
    10.2423  10.2423  10.2423  10.2423  10.2423  10.2423  10.2423  10.2423
    10.3359  10.3359  10.3359  10.3360  10.3360  10.3360  10.3360  10.3360
    10.4774  10.4774  10.4774  10.4774  10.4775  10.4775  10.4775  10.4775
    10.5434  10.5434  10.5434  10.5434  10.5434  10.5435  10.5435  10.5435
    10.7060  10.7061  10.7061  10.7061  10.7061  10.7061  10.7061  10.7061
    10.7635  10.7635  10.7635  10.7635  10.7635  10.7635  10.7636  10.7636
    10.9569  10.9569  10.9569  10.9569  10.9569  10.9569  10.9570  10.9570
    11.0939  11.0939  11.0939  11.0939  11.0940  11.0940  11.0940  11.0940
    11.1800  11.1800  11.1800  11.1800  11.1801  11.1801  11.1801  11.1801
    11.3290  11.3291  11.3291  11.3291  11.3291

     the Fermi energy is     8.3529 ev

!    total energy              =   -5786.91302010 Ry
     Harris-Foulkes estimate   =   -5786.91302008 Ry
     estimated scf accuracy    <       0.00000014 Ry

     The total energy is the sum of the following terms:

     one-electron contribution =   -2683.42761782 Ry
     hartree contribution      =    1666.52127932 Ry
     xc contribution           =    -915.73039721 Ry
     ewald contribution        =   -3854.27628439 Ry
     smearing contrib. (-TS)   =      -0.00000000 Ry

     total magnetization       =    -0.00 Bohr mag/cell
     absolute magnetization    =     0.01 Bohr mag/cell

     convergence has been achieved in  14 iterations

     Writing output data file espresso.save\

     init_run     :   3169.42s CPU   1054.30s WALL (       1 calls)
     electrons    : 156900.42s CPU  43815.67s WALL (       1 calls)

     Called by init_run:
     wfcinit      :   3152.44s CPU   1043.16s WALL (       1 calls)
     potinit      :      4.89s CPU      1.47s WALL (       1 calls)
     hinit0       :      7.06s CPU      7.16s WALL (       1 calls)

     Called by electrons:
     c_bands      : 142159.19s CPU  39709.33s WALL (      14 calls)
     sum_band     :  14288.64s CPU   3944.84s WALL (      14 calls)
     v_of_rho     :    217.33s CPU     62.14s WALL (      15 calls)
     newd         :    197.84s CPU     85.19s WALL (      15 calls)
     mix_rho      :     29.94s CPU     11.06s WALL (      14 calls)

     Called by c_bands:
     init_us_2    :    466.30s CPU    128.86s WALL (    1044 calls)
     cegterg      : 139741.62s CPU  38925.02s WALL (     504 calls)

     Called by sum_band:
     sum_band:bec :     43.16s CPU     17.45s WALL (     504 calls)
     addusdens    :    230.94s CPU    117.41s WALL (      14 calls)

     Called by *egterg:
     h_psi        :  67160.78s CPU  18601.58s WALL (    2252 calls)
     s_psi        :  16593.16s CPU   4223.66s WALL (    2252 calls)
     g_psi        :    269.19s CPU     70.85s WALL (    1712 calls)
     cdiaghg      :  11952.36s CPU   4203.36s WALL (    2216 calls)

     Called by h_psi:
     h_psi:pot    :  66788.31s CPU  18282.37s WALL (    2252 calls)
     h_psi:calbec :  16101.31s CPU   4071.02s WALL (    2252 calls)
     vloc_psi     :  34049.25s CPU   9988.61s WALL (    2252 calls)
     add_vuspsi   :  16637.52s CPU   4222.73s WALL (    2252 calls)

     General routines
     calbec       :  22430.00s CPU   5670.05s WALL (    2756 calls)
     fft          :     21.62s CPU      6.82s WALL (     368 calls)
     ffts         :      1.84s CPU      0.51s WALL (      58 calls)
     fftw         :  33753.91s CPU   9711.58s WALL ( 1447878 calls)
     interpolate  :      7.73s CPU      2.58s WALL (      30 calls)

     Parallel routines

     PWSCF        :   1d20h27m CPU     12h29m WALL


   This run was terminated on:  17:26:52   5Jun2021            

=------------------------------------------------------------------------------=
   JOB DONE.
=------------------------------------------------------------------------------=
