
     Program PWSCF v.6.5 starts on 31May2021 at 10:24:27 

     This program is part of the open-source Quantum ESPRESSO suite
     for quantum simulation of materials; please cite
         "P. Giannozzi et al., J. Phys.:Condens. Matter 21 395502 (2009);
         "P. Giannozzi et al., J. Phys.:Condens. Matter 29 465901 (2017);
          URL http://www.quantum-espresso.org", 
     in publications or presentations arising from this work. More details at
     http://www.quantum-espresso.org/quote

     Parallel version (MPI), running on     1 processors

     MPI processes distributed on     1 nodes
     Waiting for input...
     Reading input from standard input

     Current dimensions of program PWSCF are:
     Max number of different atomic species (ntypx) = 10
     Max number of k-points (npk) =  40000
     Max angular momentum in pseudopotentials (lmaxx) =  3
               file O.pbe-rrkjus.UPF: wavefunction(s)  2S renormalized

     Subspace diagonalization in iterative solution of the eigenvalue problem:
     a serial algorithm will be used

     Found symmetry operation: I + (  0.2500  0.2500  0.2500)
     This is a supercell, fractional translations are disabled

     G-vector sticks info
     --------------------
     sticks:   dense  smooth     PW     G-vecs:    dense   smooth      PW
     Sum        3265    2285    609               354483   207445   28783



     bravais-lattice index     =            6
     lattice parameter (alat)  =      14.3241  a.u.
     unit-cell volume          =    7421.2481 (a.u.)^3
     number of atoms/cell      =           96
     number of atomic types    =            2
     number of electrons       =       768.00
     number of Kohn-Sham states=          461
     kinetic-energy cutoff     =      35.0000  Ry
     charge density cutoff     =     200.0000  Ry
     convergence threshold     =      1.0E-06
     mixing beta               =       0.4000
     number of iterations used =            8  plain     mixing
     Exchange-correlation=  SLA  PW   PBE  PBE
                           (   1   4   3   4   0   0   0)

     celldm(1)=  14.324124  celldm(2)=   0.000000  celldm(3)=   2.525066
     celldm(4)=   0.000000  celldm(5)=   0.000000  celldm(6)=   0.000000

     crystal axes: (cart. coord. in units of alat)
               a(1) = (   1.000000   0.000000   0.000000 )  
               a(2) = (   0.000000   1.000000   0.000000 )  
               a(3) = (   0.000000   0.000000   2.525066 )  

     reciprocal axes: (cart. coord. in units 2 pi/alat)
               b(1) = (  1.000000  0.000000  0.000000 )  
               b(2) = (  0.000000  1.000000  0.000000 )  
               b(3) = (  0.000000  0.000000  0.396029 )  


     PseudoPot. # 1 for Ti read from file:
     ./pseudo/Ti.pbe-sp-van_ak.UPF
     MD5 check sum: 2e7572f3128e7cf134dafc4105d62c0f
     Pseudo is Ultrasoft, Zval = 12.0
     Generated by new atomic code, or converted to UPF format
     Using radial grid of  851 points,  6 beta functions with: 
                l(1) =   0
                l(2) =   0
                l(3) =   1
                l(4) =   1
                l(5) =   2
                l(6) =   2
     Q(r) pseudized with  8 coefficients,  rinner =    1.000   1.000   1.000
                                                       1.000   1.000

     PseudoPot. # 2 for O  read from file:
     ./pseudo/O.pbe-rrkjus.UPF
     MD5 check sum: a4b6f5047f549466a921003d899c5518
     Pseudo is Ultrasoft, Zval =  6.0
     Generated by new atomic code, or converted to UPF format
     Using radial grid of 1269 points,  4 beta functions with: 
                l(1) =   0
                l(2) =   0
                l(3) =   1
                l(4) =   1
     Q(r) pseudized with 0 coefficients 


     atomic species   valence    mass     pseudopotential
        Ti            12.00    47.86700     Ti( 1.00)
        O              6.00    15.99940     O ( 1.00)

     Starting magnetic structure 
     atomic species   magnetization
        Ti           0.200
        O            0.000

      8 Sym. Ops. (no inversion) found



   Cartesian axes

     site n.     atom                  positions (alat units)
         1           Ti  tau(   1) = (   0.0000000   0.0000000   0.0000000  )
         2           Ti  tau(   2) = (   0.2500000   0.2500000   0.6312665  )
         3           Ti  tau(   3) = (   0.0000000   0.2500000   0.3156332  )
         4           Ti  tau(   4) = (   0.2500000   0.0000000   0.9468997  )
         5           Ti  tau(   5) = (   0.0000000   0.0000000   1.2625330  )
         6           Ti  tau(   6) = (   0.2500000   0.2500000   1.8937993  )
         7           Ti  tau(   7) = (   0.0000000   0.2500000   1.5781661  )
         8           Ti  tau(   8) = (   0.2500000   0.0000000   2.2094326  )
         9           Ti  tau(   9) = (   0.0000000   0.5000000   0.0000000  )
        10           Ti  tau(  10) = (   0.2500000   0.7500000   0.6312665  )
        11           Ti  tau(  11) = (   0.5000000   0.2500000   0.3156332  )
        12           Ti  tau(  12) = (   0.7500000   0.0000000   0.9468997  )
        13           Ti  tau(  13) = (   0.2500000   0.5000000   0.9468997  )
        14           Ti  tau(  14) = (   0.0000000   0.7500000   0.3156332  )
        15           Ti  tau(  15) = (   0.7500000   0.2500000   0.6312665  )
        16           Ti  tau(  16) = (   0.5000000   0.0000000   0.0000000  )
        17           Ti  tau(  17) = (   0.0000000   0.5000000   1.2625330  )
        18           Ti  tau(  18) = (   0.2500000   0.7500000   1.8937993  )
        19           Ti  tau(  19) = (   0.5000000   0.2500000   1.5781661  )
        20           Ti  tau(  20) = (   0.7500000   0.0000000   2.2094326  )
        21           Ti  tau(  21) = (   0.2500000   0.5000000   2.2094326  )
        22           Ti  tau(  22) = (   0.0000000   0.7500000   1.5781661  )
        23           Ti  tau(  23) = (   0.7500000   0.2500000   1.8937993  )
        24           Ti  tau(  24) = (   0.5000000   0.0000000   1.2625330  )
        25           Ti  tau(  25) = (   0.5000000   0.5000000   0.0000000  )
        26           Ti  tau(  26) = (   0.7500000   0.7500000   0.6312665  )
        27           Ti  tau(  27) = (   0.5000000   0.7500000   0.3156332  )
        28           Ti  tau(  28) = (   0.7500000   0.5000000   0.9468997  )
        29           Ti  tau(  29) = (   0.5000000   0.5000000   1.2625330  )
        30           Ti  tau(  30) = (   0.7500000   0.7500000   1.8937993  )
        31           Ti  tau(  31) = (   0.5000000   0.7500000   1.5781661  )
        32           Ti  tau(  32) = (   0.7500000   0.5000000   2.2094326  )
        33           O   tau(  33) = (   0.0000000   0.0000000   0.2525066  )
        34           O   tau(  34) = (   0.2500000   0.2500000   0.8837731  )
        35           O   tau(  35) = (   0.0000000   0.2500000   0.5681398  )
        36           O   tau(  36) = (   0.2500000   0.0000000   1.1994063  )
        37           O   tau(  37) = (   0.2500000   0.0000000   0.6943931  )
        38           O   tau(  38) = (   0.0000000   0.2500000   0.0631266  )
        39           O   tau(  39) = (   0.2500000   0.2500000   0.3787599  )
        40           O   tau(  40) = (   0.0000000   0.0000000   2.2725592  )
        41           O   tau(  41) = (   0.0000000   0.0000000   1.5150394  )
        42           O   tau(  42) = (   0.2500000   0.2500000   2.1463059  )
        43           O   tau(  43) = (   0.0000000   0.2500000   1.8306727  )
        44           O   tau(  44) = (   0.2500000   0.0000000   2.4619392  )
        45           O   tau(  45) = (   0.2500000   0.0000000   1.9569260  )
        46           O   tau(  46) = (   0.0000000   0.2500000   1.3256595  )
        47           O   tau(  47) = (   0.2500000   0.2500000   1.6412927  )
        48           O   tau(  48) = (   0.0000000   0.0000000   1.0100264  )
        49           O   tau(  49) = (   0.0000000   0.5000000   0.2525066  )
        50           O   tau(  50) = (   0.2500000   0.7500000   0.8837731  )
        51           O   tau(  51) = (   0.5000000   0.2500000   0.5681398  )
        52           O   tau(  52) = (   0.7500000   0.0000000   1.1994063  )
        53           O   tau(  53) = (   0.2500000   0.5000000   0.6943931  )
        54           O   tau(  54) = (   0.0000000   0.7500000   0.0631266  )
        55           O   tau(  55) = (   0.7500000   0.2500000   0.3787599  )
        56           O   tau(  56) = (   0.5000000   0.0000000   2.2725592  )
        57           O   tau(  57) = (   0.0000000   0.5000000   1.5150394  )
        58           O   tau(  58) = (   0.2500000   0.7500000   2.1463059  )
        59           O   tau(  59) = (   0.5000000   0.2500000   1.8306727  )
        60           O   tau(  60) = (   0.7500000   0.0000000   2.4619392  )
        61           O   tau(  61) = (   0.2500000   0.5000000   1.9569260  )
        62           O   tau(  62) = (   0.0000000   0.7500000   1.3256595  )
        63           O   tau(  63) = (   0.7500000   0.2500000   1.6412927  )
        64           O   tau(  64) = (   0.5000000   0.0000000   1.0100264  )
        65           O   tau(  65) = (   0.5000000   0.0000000   0.2525066  )
        66           O   tau(  66) = (   0.7500000   0.2500000   0.8837731  )
        67           O   tau(  67) = (   0.0000000   0.7500000   0.5681398  )
        68           O   tau(  68) = (   0.2500000   0.5000000   1.1994063  )
        69           O   tau(  69) = (   0.7500000   0.0000000   0.6943931  )
        70           O   tau(  70) = (   0.5000000   0.2500000   0.0631266  )
        71           O   tau(  71) = (   0.2500000   0.7500000   0.3787599  )
        72           O   tau(  72) = (   0.0000000   0.5000000   2.2725592  )
        73           O   tau(  73) = (   0.5000000   0.0000000   1.5150394  )
        74           O   tau(  74) = (   0.7500000   0.2500000   2.1463059  )
        75           O   tau(  75) = (   0.0000000   0.7500000   1.8306727  )
        76           O   tau(  76) = (   0.2500000   0.5000000   2.4619392  )
        77           O   tau(  77) = (   0.7500000   0.0000000   1.9569260  )
        78           O   tau(  78) = (   0.5000000   0.2500000   1.3256595  )
        79           O   tau(  79) = (   0.2500000   0.7500000   1.6412927  )
        80           O   tau(  80) = (   0.0000000   0.5000000   1.0100264  )
        81           O   tau(  81) = (   0.5000000   0.5000000   0.2525066  )
        82           O   tau(  82) = (   0.7500000   0.7500000   0.8837731  )
        83           O   tau(  83) = (   0.5000000   0.7500000   0.5681398  )
        84           O   tau(  84) = (   0.7500000   0.5000000   1.1994063  )
        85           O   tau(  85) = (   0.7500000   0.5000000   0.6943931  )
        86           O   tau(  86) = (   0.5000000   0.7500000   0.0631266  )
        87           O   tau(  87) = (   0.7500000   0.7500000   0.3787599  )
        88           O   tau(  88) = (   0.5000000   0.5000000   2.2725592  )
        89           O   tau(  89) = (   0.5000000   0.5000000   1.5150394  )
        90           O   tau(  90) = (   0.7500000   0.7500000   2.1463059  )
        91           O   tau(  91) = (   0.5000000   0.7500000   1.8306727  )
        92           O   tau(  92) = (   0.7500000   0.5000000   2.4619392  )
        93           O   tau(  93) = (   0.7500000   0.5000000   1.9569260  )
        94           O   tau(  94) = (   0.5000000   0.7500000   1.3256595  )
        95           O   tau(  95) = (   0.7500000   0.7500000   1.6412927  )
        96           O   tau(  96) = (   0.5000000   0.5000000   1.0100264  )

     number of k points=     6  Gaussian smearing, width (Ry)=  0.0100
                       cart. coord. in units 2pi/alat
        k(    1) = (   0.0000000   0.0000000   0.0000000), wk =   0.0370370
        k(    2) = (   0.0000000   0.0000000   0.1320098), wk =   0.0740741
        k(    3) = (   0.0000000   0.3333333   0.0000000), wk =   0.1481481
        k(    4) = (   0.0000000   0.3333333   0.1320098), wk =   0.2962963
        k(    5) = (   0.3333333   0.3333333   0.0000000), wk =   0.1481481
        k(    6) = (   0.3333333   0.3333333   0.1320098), wk =   0.2962963

     Dense  grid:   354483 G-vectors     FFT dimensions: (  72,  72, 180)

     Smooth grid:   207445 G-vectors     FFT dimensions: (  54,  54, 144)

     Estimated max dynamical RAM per process >       5.40 GB
     Generating pointlists ...
     new r_m :   0.1042 (alat units)  1.4920 (a.u.) for type    1
     new r_m :   0.1042 (alat units)  1.4920 (a.u.) for type    2

     Initial potential from superposition of free atoms

     starting charge  735.99850, renormalised to  768.00000
     Starting wfcs are  576 randomized atomic wfcs

     total cpu time spent up to now is     3270.2 secs

     Self-consistent Calculation

     iteration #  1     ecut=    35.00 Ry     beta= 0.40
     Davidson diagonalization with overlap
     ethr =  1.00E-02,  avg # of iterations =  3.0

     total cpu time spent up to now is    11516.6 secs

     total energy              =   -5778.39474445 Ry
     Harris-Foulkes estimate   =   -5788.84516702 Ry
     estimated scf accuracy    <      23.86894865 Ry

     total magnetization       =    -0.00 Bohr mag/cell
     absolute magnetization    =     9.62 Bohr mag/cell

     iteration #  2     ecut=    35.00 Ry     beta= 0.40
     Davidson diagonalization with overlap
     ethr =  3.11E-03,  avg # of iterations =  4.0

     total cpu time spent up to now is    22443.0 secs

     total energy              =   -5782.83827152 Ry
     Harris-Foulkes estimate   =   -5788.31191369 Ry
     estimated scf accuracy    <      17.55054658 Ry

     total magnetization       =     0.26 Bohr mag/cell
     absolute magnetization    =    21.62 Bohr mag/cell

     iteration #  3     ecut=    35.00 Ry     beta= 0.40
     Davidson diagonalization with overlap
     ethr =  2.29E-03,  avg # of iterations =  3.4

     total cpu time spent up to now is    30081.3 secs

     total energy              =   -5786.55173101 Ry
     Harris-Foulkes estimate   =   -5786.23884155 Ry
     estimated scf accuracy    <       1.37303234 Ry

     total magnetization       =    -0.00 Bohr mag/cell
     absolute magnetization    =     7.01 Bohr mag/cell

     iteration #  4     ecut=    35.00 Ry     beta= 0.40
     Davidson diagonalization with overlap
     ethr =  1.79E-04,  avg # of iterations =  3.8

     total cpu time spent up to now is    39104.8 secs

     total energy              =   -5786.90107546 Ry
     Harris-Foulkes estimate   =   -5786.90859753 Ry
     estimated scf accuracy    <       0.10679908 Ry

     total magnetization       =     0.00 Bohr mag/cell
     absolute magnetization    =     2.36 Bohr mag/cell

     iteration #  5     ecut=    35.00 Ry     beta= 0.40
     Davidson diagonalization with overlap
     ethr =  1.39E-05,  avg # of iterations =  3.2

     total cpu time spent up to now is    47226.5 secs

     total energy              =   -5786.89713551 Ry
     Harris-Foulkes estimate   =   -5786.91516290 Ry
     estimated scf accuracy    <       0.04339125 Ry

     total magnetization       =     0.00 Bohr mag/cell
     absolute magnetization    =     2.16 Bohr mag/cell

     iteration #  6     ecut=    35.00 Ry     beta= 0.40
     Davidson diagonalization with overlap
     ethr =  5.65E-06,  avg # of iterations =  5.4

     total cpu time spent up to now is    58807.5 secs

     total energy              =   -5786.91252222 Ry
     Harris-Foulkes estimate   =   -5786.91553849 Ry
     estimated scf accuracy    <       0.01840338 Ry

     total magnetization       =    -0.00 Bohr mag/cell
     absolute magnetization    =     1.05 Bohr mag/cell

     iteration #  7     ecut=    35.00 Ry     beta= 0.40
     Davidson diagonalization with overlap
     ethr =  2.40E-06,  avg # of iterations =  1.2

     total cpu time spent up to now is    65068.4 secs

     total energy              =   -5786.91223164 Ry
     Harris-Foulkes estimate   =   -5786.91316947 Ry
     estimated scf accuracy    <       0.00682294 Ry

     total magnetization       =    -0.00 Bohr mag/cell
     absolute magnetization    =     0.89 Bohr mag/cell

     iteration #  8     ecut=    35.00 Ry     beta= 0.40
     Davidson diagonalization with overlap
     ethr =  8.88E-07,  avg # of iterations =  3.2

     total cpu time spent up to now is    72801.7 secs

     total energy              =   -5786.91323200 Ry
     Harris-Foulkes estimate   =   -5786.91322820 Ry
     estimated scf accuracy    <       0.00080550 Ry

     total magnetization       =     0.00 Bohr mag/cell
     absolute magnetization    =     0.63 Bohr mag/cell

     iteration #  9     ecut=    35.00 Ry     beta= 0.40
     Davidson diagonalization with overlap
     ethr =  1.05E-07,  avg # of iterations =  4.3

     total cpu time spent up to now is    83173.4 secs

     total energy              =   -5786.91378192 Ry
     Harris-Foulkes estimate   =   -5786.91390075 Ry
     estimated scf accuracy    <       0.00090075 Ry

     total magnetization       =     0.00 Bohr mag/cell
     absolute magnetization    =     0.07 Bohr mag/cell

     iteration # 10     ecut=    35.00 Ry     beta= 0.40
     Davidson diagonalization with overlap
     ethr =  1.05E-07,  avg # of iterations =  1.0

     total cpu time spent up to now is    89410.9 secs

     total energy              =   -5786.91361948 Ry
     Harris-Foulkes estimate   =   -5786.91380616 Ry
     estimated scf accuracy    <       0.00045645 Ry

     total magnetization       =    -0.00 Bohr mag/cell
     absolute magnetization    =     0.05 Bohr mag/cell

     iteration # 11     ecut=    35.00 Ry     beta= 0.40
     Davidson diagonalization with overlap
     ethr =  5.94E-08,  avg # of iterations =  3.0

     total cpu time spent up to now is    97638.5 secs

     total energy              =   -5786.91373115 Ry
     Harris-Foulkes estimate   =   -5786.91374055 Ry
     estimated scf accuracy    <       0.00004196 Ry

     total magnetization       =     0.00 Bohr mag/cell
     absolute magnetization    =     0.11 Bohr mag/cell

     iteration # 12     ecut=    35.00 Ry     beta= 0.40
     Davidson diagonalization with overlap
     ethr =  5.46E-09,  avg # of iterations =  3.5

     total cpu time spent up to now is   107263.9 secs

     total energy              =   -5786.91374873 Ry
     Harris-Foulkes estimate   =   -5786.91375137 Ry
     estimated scf accuracy    <       0.00000825 Ry

     total magnetization       =     0.00 Bohr mag/cell
     absolute magnetization    =     0.01 Bohr mag/cell

     iteration # 13     ecut=    35.00 Ry     beta= 0.40
     Davidson diagonalization with overlap
     ethr =  1.07E-09,  avg # of iterations =  3.5

     total cpu time spent up to now is   115726.1 secs

     total energy              =   -5786.91375030 Ry
     Harris-Foulkes estimate   =   -5786.91375093 Ry
     estimated scf accuracy    <       0.00000178 Ry

     total magnetization       =    -0.00 Bohr mag/cell
     absolute magnetization    =     0.01 Bohr mag/cell

     iteration # 14     ecut=    35.00 Ry     beta= 0.40
     Davidson diagonalization with overlap
     ethr =  2.32E-10,  avg # of iterations =  3.3

     Magnetic moment per site:
     atom:    1    charge:    8.4016    magn:    0.0000    constr:    0.0000
     atom:    2    charge:    8.4016    magn:    0.0000    constr:    0.0000
     atom:    3    charge:    8.4011    magn:    0.0000    constr:    0.0000
     atom:    4    charge:    8.4011    magn:    0.0000    constr:    0.0000
     atom:    5    charge:    8.4016    magn:    0.0000    constr:    0.0000
     atom:    6    charge:    8.4016    magn:    0.0000    constr:    0.0000
     atom:    7    charge:    8.4011    magn:    0.0000    constr:    0.0000
     atom:    8    charge:    8.4011    magn:    0.0000    constr:    0.0000
     atom:    9    charge:    8.4015    magn:    0.0000    constr:    0.0000
     atom:   10    charge:    8.4016    magn:    0.0000    constr:    0.0000
     atom:   11    charge:    8.4011    magn:    0.0000    constr:    0.0000
     atom:   12    charge:    8.4011    magn:    0.0000    constr:    0.0000
     atom:   13    charge:    8.4011    magn:    0.0000    constr:    0.0000
     atom:   14    charge:    8.4011    magn:    0.0000    constr:    0.0000
     atom:   15    charge:    8.4016    magn:    0.0000    constr:    0.0000
     atom:   16    charge:    8.4015    magn:    0.0000    constr:    0.0000
     atom:   17    charge:    8.4015    magn:    0.0000    constr:    0.0000
     atom:   18    charge:    8.4016    magn:    0.0000    constr:    0.0000
     atom:   19    charge:    8.4011    magn:    0.0000    constr:    0.0000
     atom:   20    charge:    8.4011    magn:    0.0000    constr:    0.0000
     atom:   21    charge:    8.4011    magn:    0.0000    constr:    0.0000
     atom:   22    charge:    8.4011    magn:    0.0000    constr:    0.0000
     atom:   23    charge:    8.4016    magn:    0.0000    constr:    0.0000
     atom:   24    charge:    8.4015    magn:    0.0000    constr:    0.0000
     atom:   25    charge:    8.4015    magn:    0.0000    constr:    0.0000
     atom:   26    charge:    8.4016    magn:    0.0000    constr:    0.0000
     atom:   27    charge:    8.4011    magn:    0.0000    constr:    0.0000
     atom:   28    charge:    8.4011    magn:    0.0000    constr:    0.0000
     atom:   29    charge:    8.4015    magn:    0.0000    constr:    0.0000
     atom:   30    charge:    8.4016    magn:    0.0000    constr:    0.0000
     atom:   31    charge:    8.4011    magn:    0.0000    constr:    0.0000
     atom:   32    charge:    8.4011    magn:    0.0000    constr:    0.0000
     atom:   33    charge:    5.3653    magn:   -0.0000    constr:    0.0000
     atom:   34    charge:    5.3653    magn:   -0.0001    constr:    0.0000
     atom:   35    charge:    5.3648    magn:   -0.0001    constr:    0.0000
     atom:   36    charge:    5.3649    magn:   -0.0000    constr:    0.0000
     atom:   37    charge:    5.3648    magn:   -0.0001    constr:    0.0000
     atom:   38    charge:    5.3649    magn:   -0.0000    constr:    0.0000
     atom:   39    charge:    5.3652    magn:   -0.0001    constr:    0.0000
     atom:   40    charge:    5.3653    magn:   -0.0000    constr:    0.0000
     atom:   41    charge:    5.3652    magn:   -0.0000    constr:    0.0000
     atom:   42    charge:    5.3652    magn:   -0.0001    constr:    0.0000
     atom:   43    charge:    5.3648    magn:   -0.0001    constr:    0.0000
     atom:   44    charge:    5.3649    magn:   -0.0000    constr:    0.0000
     atom:   45    charge:    5.3648    magn:   -0.0001    constr:    0.0000
     atom:   46    charge:    5.3649    magn:   -0.0000    constr:    0.0000
     atom:   47    charge:    5.3653    magn:   -0.0001    constr:    0.0000
     atom:   48    charge:    5.3652    magn:   -0.0000    constr:    0.0000
     atom:   49    charge:    5.3652    magn:   -0.0001    constr:    0.0000
     atom:   50    charge:    5.3653    magn:   -0.0001    constr:    0.0000
     atom:   51    charge:    5.3648    magn:   -0.0001    constr:    0.0000
     atom:   52    charge:    5.3649    magn:   -0.0000    constr:    0.0000
     atom:   53    charge:    5.3648    magn:   -0.0001    constr:    0.0000
     atom:   54    charge:    5.3649    magn:   -0.0000    constr:    0.0000
     atom:   55    charge:    5.3652    magn:   -0.0001    constr:    0.0000
     atom:   56    charge:    5.3652    magn:   -0.0001    constr:    0.0000
     atom:   57    charge:    5.3652    magn:   -0.0001    constr:    0.0000
     atom:   58    charge:    5.3652    magn:   -0.0001    constr:    0.0000
     atom:   59    charge:    5.3648    magn:   -0.0001    constr:    0.0000
     atom:   60    charge:    5.3649    magn:   -0.0000    constr:    0.0000
     atom:   61    charge:    5.3648    magn:   -0.0001    constr:    0.0000
     atom:   62    charge:    5.3649    magn:   -0.0000    constr:    0.0000
     atom:   63    charge:    5.3653    magn:   -0.0001    constr:    0.0000
     atom:   64    charge:    5.3652    magn:   -0.0001    constr:    0.0000
     atom:   65    charge:    5.3652    magn:   -0.0001    constr:    0.0000
     atom:   66    charge:    5.3653    magn:   -0.0001    constr:    0.0000
     atom:   67    charge:    5.3648    magn:   -0.0001    constr:    0.0000
     atom:   68    charge:    5.3649    magn:   -0.0001    constr:    0.0000
     atom:   69    charge:    5.3648    magn:   -0.0001    constr:    0.0000
     atom:   70    charge:    5.3649    magn:   -0.0000    constr:    0.0000
     atom:   71    charge:    5.3652    magn:   -0.0001    constr:    0.0000
     atom:   72    charge:    5.3652    magn:   -0.0001    constr:    0.0000
     atom:   73    charge:    5.3652    magn:   -0.0001    constr:    0.0000
     atom:   74    charge:    5.3652    magn:   -0.0001    constr:    0.0000
     atom:   75    charge:    5.3648    magn:   -0.0001    constr:    0.0000
     atom:   76    charge:    5.3649    magn:   -0.0000    constr:    0.0000
     atom:   77    charge:    5.3648    magn:   -0.0001    constr:    0.0000
     atom:   78    charge:    5.3649    magn:   -0.0001    constr:    0.0000
     atom:   79    charge:    5.3653    magn:   -0.0001    constr:    0.0000
     atom:   80    charge:    5.3652    magn:   -0.0001    constr:    0.0000
     atom:   81    charge:    5.3652    magn:   -0.0001    constr:    0.0000
     atom:   82    charge:    5.3653    magn:   -0.0001    constr:    0.0000
     atom:   83    charge:    5.3648    magn:   -0.0001    constr:    0.0000
     atom:   84    charge:    5.3649    magn:   -0.0001    constr:    0.0000
     atom:   85    charge:    5.3648    magn:   -0.0001    constr:    0.0000
     atom:   86    charge:    5.3649    magn:   -0.0000    constr:    0.0000
     atom:   87    charge:    5.3652    magn:   -0.0001    constr:    0.0000
     atom:   88    charge:    5.3652    magn:   -0.0001    constr:    0.0000
     atom:   89    charge:    5.3652    magn:   -0.0001    constr:    0.0000
     atom:   90    charge:    5.3652    magn:   -0.0001    constr:    0.0000
     atom:   91    charge:    5.3648    magn:   -0.0001    constr:    0.0000
     atom:   92    charge:    5.3649    magn:   -0.0000    constr:    0.0000
     atom:   93    charge:    5.3648    magn:   -0.0001    constr:    0.0000
     atom:   94    charge:    5.3649    magn:   -0.0001    constr:    0.0000
     atom:   95    charge:    5.3653    magn:   -0.0001    constr:    0.0000
     atom:   96    charge:    5.3652    magn:   -0.0001    constr:    0.0000

     total cpu time spent up to now is   124806.0 secs

     End of self-consistent calculation

 ------ SPIN UP ------------


          k = 0.0000 0.0000 0.0000 ( 25997 PWs)   bands (ev):

   -49.0925 -49.0836 -49.0836 -49.0753 -49.0752 -49.0752 -49.0752 -49.0751
   -49.0751 -49.0751 -49.0750 -49.0624 -49.0619 -49.0582 -49.0582 -49.0580
   -49.0580 -49.0577 -49.0575 -49.0575 -49.0575 -49.0449 -49.0448 -49.0448
   -49.0448 -49.0448 -49.0447 -49.0447 -49.0446 -49.0406 -49.0405 -49.0316
   -25.6277 -25.5853 -25.5853 -25.5853 -25.5852 -25.5794 -25.5793 -25.5793
   -25.5793 -25.5670 -25.5669 -25.5551 -25.5550 -25.5549 -25.5548 -25.5546
   -25.5546 -25.5544 -25.5544 -25.4705 -25.4705 -25.4705 -25.4704 -25.4538
   -25.4538 -25.4538 -25.4537 -25.4206 -25.4205 -25.3712 -25.3712 -25.3710
   -25.3710 -25.3706 -25.3705 -25.3703 -25.3703 -25.3539 -25.3539 -25.3436
   -25.3436 -25.3435 -25.3435 -25.3390 -25.3390 -25.3389 -25.3389 -25.3388
   -25.3388 -25.3388 -25.3388 -25.3303 -25.3303 -25.3173 -25.3173 -25.3172
   -25.3172 -25.2978 -25.2978 -25.2977 -25.2977 -25.2669 -25.2669 -25.2577
   -25.2577 -25.2433 -25.2433 -25.2433 -25.2432 -25.2424 -25.2424 -25.2424
   -25.2423 -25.2419 -25.2418 -25.2418 -25.2418 -25.2330 -25.2330 -25.2207
   -25.2206 -25.2206 -25.2206 -25.2202 -25.2201 -25.2200 -25.2200 -25.2200
   -25.2200 -25.2198 -25.2198 -25.2107 -25.2106 -25.2106 -25.2106 -25.2040
   -10.4626 -10.2775 -10.2773  -9.9132  -9.9132  -9.9130  -9.9130  -9.9120
    -9.9119  -9.9118  -9.9118  -9.8335  -9.8334  -9.3991  -9.3990  -9.2658
    -9.2241  -9.2073  -9.2071  -9.1443  -9.1443  -9.1442  -9.1441  -9.1427
    -9.1427  -9.1426  -9.1426  -9.0922  -9.0921  -9.0921  -9.0921  -9.0849
    -9.0849  -9.0848  -9.0848  -9.0406  -9.0404  -8.8628  -8.8628  -8.8628
    -8.8627  -8.8502  -8.8502  -8.8501  -8.8501  -8.8470  -8.8470  -8.8468
    -8.8468  -8.8336  -8.8335  -8.8286  -8.8285  -8.8284  -8.8283  -8.7346
    -8.6803  -8.6803  -8.6803  -8.6802  -8.6787  -8.6787  -8.6787  -8.6786
     2.7879   2.7879   2.7879   2.7879   2.8015   2.8015   2.8015   2.8015
     2.8550   2.8550   2.8555   2.8556   2.9877   3.0031   3.0031   3.0035
     3.0036   3.0176   3.0176   3.0492   3.0492   3.0494   3.0494   3.0511
     3.0511   3.0515   3.0517   3.0813   3.0813   3.1045   3.1046   3.1047
     3.1047   3.1059   3.1060   3.1061   3.1061   3.1151   3.1151   3.1152
     3.1152   3.1167   3.1167   3.1169   3.1169   3.1490   3.1490   3.1493
     3.1496   3.1906   3.1906   3.3602   3.3603   3.3604   3.3604   3.4018
     3.4018   3.4019   3.4020   3.4166   3.4173   3.5763   3.5763   3.5766
     3.5767   3.6056   3.6058   3.6117   3.6117   3.6121   3.6121   3.9147
     3.9147   3.9147   3.9147   3.9485   4.1877   4.1877   4.1877   4.1877
     4.3064   4.3064   4.3071   4.3072   4.5592   4.5593   4.5601   4.5601
     4.5656   4.5656   4.5656   4.5656   4.9749   5.0127   5.0128   5.0130
     5.0130   5.0132   5.0132   5.0137   5.0137   5.0492   5.0493   5.0494
     5.0494   5.1010   5.1010   5.1010   5.1010   5.1249   5.1249   5.1250
     5.1251   5.1857   5.1857   5.1859   5.1859   5.2645   5.2645   5.2647
     5.2647   5.3605   5.3605   5.3606   5.3606   5.3617   5.3617   5.3626
     5.3627   5.4976   5.4978   5.8286   5.8296   5.8587   5.8587   5.8599
     5.8599   6.0173   6.0173   6.0174   6.0175   6.0883   6.0883   6.1053
     6.1054   6.1358   6.1358   6.1358   6.1359   6.2563   6.2563   6.2564
     6.2564   6.2979   6.2980   6.2982   6.2982   6.3541   6.3541   6.3542
     6.3543   6.4109   6.5537   6.5537   6.5537   6.5538   6.5629   6.5629
     6.5691   6.5691   6.5693   6.5693   6.5709   6.5710   6.5711   6.5712
     6.6516   6.6516   6.6519   6.6523   6.7617   6.7617   6.9413   6.9414
     6.9420   6.9423   7.0313   7.0314   7.0315   7.0316   7.1576   7.1576
     9.4059   9.5080   9.5080   9.7630   9.7634  10.0299  10.0299  10.1432
    10.4372  10.4372  10.4372  10.4372  10.5059  10.5059  10.5060  10.5060
    10.6247  10.6248  10.6248  10.6248  10.6518  10.6518  10.6520  10.6521
    10.6565  10.6565  10.6565  10.6566  10.7768  10.7768  10.7769  10.7769
    10.8325  10.8325  10.8326  10.8326  10.8600  10.8600  10.8600  10.8601
    10.8952  10.8952  10.8952  10.8952  10.9025  10.9025  10.9025  10.9026
    10.9634  10.9634  10.9634  10.9635  11.0162  11.0162  11.0164  11.0164
    11.1160  11.1160  11.2304  11.2304  11.2305  11.2305  11.5093  11.5093
    11.6012  11.6012  11.6173  11.6173  11.6173  11.6173  11.7216  11.7216
    11.7216  11.7216  11.8911  11.8916  11.8946

          k = 0.0000 0.0000 0.1320 ( 25988 PWs)   bands (ev):

   -49.0915 -49.0884 -49.0773 -49.0753 -49.0752 -49.0752 -49.0752 -49.0751
   -49.0751 -49.0751 -49.0750 -49.0700 -49.0582 -49.0582 -49.0580 -49.0580
   -49.0577 -49.0575 -49.0575 -49.0575 -49.0542 -49.0469 -49.0449 -49.0448
   -49.0448 -49.0448 -49.0448 -49.0447 -49.0447 -49.0446 -49.0357 -49.0327
   -25.6212 -25.6007 -25.5841 -25.5840 -25.5840 -25.5840 -25.5812 -25.5811
   -25.5811 -25.5811 -25.5546 -25.5545 -25.5543 -25.5543 -25.5543 -25.5543
   -25.5541 -25.5541 -25.5232 -25.4730 -25.4664 -25.4664 -25.4664 -25.4664
   -25.4582 -25.4582 -25.4582 -25.4582 -25.3708 -25.3708 -25.3707 -25.3706
   -25.3705 -25.3705 -25.3704 -25.3704 -25.3646 -25.3523 -25.3523 -25.3488
   -25.3488 -25.3390 -25.3390 -25.3389 -25.3389 -25.3389 -25.3388 -25.3388
   -25.3388 -25.3381 -25.3381 -25.3330 -25.3330 -25.3128 -25.3125 -25.3125
   -25.3125 -25.3125 -25.3027 -25.3027 -25.3027 -25.3027 -25.2556 -25.2556
   -25.2506 -25.2506 -25.2421 -25.2421 -25.2421 -25.2420 -25.2419 -25.2419
   -25.2419 -25.2419 -25.2377 -25.2377 -25.2341 -25.2341 -25.2331 -25.2202
   -25.2201 -25.2199 -25.2199 -25.2197 -25.2197 -25.2195 -25.2195 -25.2177
   -25.2177 -25.2177 -25.2177 -25.2130 -25.2130 -25.2130 -25.2130 -25.2119
   -10.4411 -10.3780 -10.1470  -9.9953  -9.9129  -9.9128  -9.9127  -9.9127
    -9.9122  -9.9122  -9.9120  -9.9120  -9.6729  -9.5247  -9.3038  -9.2594
    -9.2442  -9.2398  -9.1622  -9.1442  -9.1442  -9.1441  -9.1441  -9.1426
    -9.1426  -9.1426  -9.1425  -9.1059  -9.0904  -9.0904  -9.0904  -9.0903
    -9.0868  -9.0867  -9.0867  -9.0867  -8.9697  -8.8987  -8.8612  -8.8612
    -8.8612  -8.8611  -8.8565  -8.8565  -8.8565  -8.8564  -8.8392  -8.8392
    -8.8390  -8.8390  -8.8315  -8.8315  -8.8314  -8.8313  -8.7810  -8.7466
    -8.6802  -8.6802  -8.6802  -8.6801  -8.6786  -8.6786  -8.6785  -8.6785
     2.7912   2.7912   2.7912   2.7912   2.7980   2.7980   2.7980   2.7981
     2.8789   2.8789   2.8794   2.8795   2.9419   2.9419   2.9423   2.9424
     3.0147   3.0217   3.0217   3.0332   3.0332   3.0653   3.0654   3.0772
     3.0773   3.0891   3.0993   3.0993   3.0997   3.0999   3.1049   3.1049
     3.1051   3.1051   3.1056   3.1056   3.1058   3.1058   3.1155   3.1156
     3.1157   3.1157   3.1164   3.1164   3.1165   3.1165   3.1373   3.1373
     3.1376   3.1379   3.2914   3.3684   3.3689   3.3690   3.3691   3.3691
     3.3895   3.3896   3.3897   3.3897   3.4561   3.5122   3.5863   3.5863
     3.5866   3.5867   3.6040   3.6040   3.6043   3.6044   3.7380   3.8793
     3.9680   3.9680   3.9680   3.9680   4.0953   4.0953   4.0953   4.0953
     4.3561   4.3562   4.3569   4.3570   4.4785   4.4785   4.4794   4.4794
     4.6914   4.6914   4.6914   4.6914   4.9237   4.9238   4.9238   4.9238
     5.0128   5.0128   5.0129   5.0129   5.0133   5.0133   5.0136   5.0136
     5.0621   5.0621   5.0622   5.0623   5.0695   5.0958   5.0958   5.0960
     5.0960   5.2155   5.2156   5.2157   5.2157   5.2509   5.2509   5.2511
     5.2511   5.2784   5.4886   5.4886   5.4896   5.4896   5.5495   5.5495
     5.5495   5.5496   5.6684   5.7279   5.7279   5.7291   5.7291   5.7722
     5.8194   5.8194   5.8194   5.8195   5.8834   5.9733   6.1083   6.1083
     6.1662   6.1662   6.2421   6.2421   6.2422   6.2423   6.2515   6.2869
     6.2870   6.2871   6.2872   6.3669   6.3693   6.3693   6.4059   6.4059
     6.4059   6.4059   6.4897   6.4897   6.5097   6.5097   6.5098   6.5098
     6.5695   6.5696   6.5698   6.5698   6.5705   6.5705   6.5707   6.5707
     6.7432   6.7432   6.7437   6.7440   6.8301   6.8301   6.8832   6.8832
     6.8838   6.8842   6.9373   6.9373   7.1013   7.1013   7.1436   7.1436
     9.4171   9.4517   9.5824   9.6689   9.8594   9.9501  10.0903  10.1297
    10.4627  10.4627  10.4627  10.4627  10.5339  10.5340  10.5340  10.5340
    10.5360  10.5360  10.5361  10.5361  10.6063  10.6063  10.6064  10.6065
    10.7584  10.7585  10.7585  10.7585  10.7822  10.7823  10.7823  10.7823
    10.8033  10.8033  10.8033  10.8033  10.8555  10.8555  10.8555  10.8556
    10.9011  10.9011  10.9011  10.9012  10.9411  10.9411  10.9412  10.9412
    10.9456  10.9456  10.9457  10.9457  10.9958  10.9958  10.9960  10.9961
    11.1296  11.1296  11.1670  11.1670  11.3169  11.3169  11.4235  11.4235
    11.6416  11.6417  11.6417  11.6417  11.6873  11.6873  11.6926  11.6927
    11.6927  11.6927  11.7967  11.7967  11.9389

          k = 0.0000 0.3333 0.0000 ( 25971 PWs)   bands (ev):

   -49.0899 -49.0833 -49.0817 -49.0817 -49.0775 -49.0775 -49.0727 -49.0726
   -49.0725 -49.0725 -49.0681 -49.0661 -49.0659 -49.0659 -49.0659 -49.0636
   -49.0595 -49.0529 -49.0509 -49.0507 -49.0507 -49.0507 -49.0464 -49.0463
   -49.0462 -49.0462 -49.0435 -49.0435 -49.0415 -49.0414 -49.0377 -49.0331
   -25.6240 -25.6123 -25.5825 -25.5824 -25.5780 -25.5779 -25.5756 -25.5755
   -25.5745 -25.5745 -25.5724 -25.5723 -25.5697 -25.5696 -25.5326 -25.5176
   -25.5175 -25.5135 -25.5135 -25.4822 -25.4822 -25.4700 -25.4700 -25.4625
   -25.4496 -25.4435 -25.4435 -25.4283 -25.4212 -25.3835 -25.3834 -25.3756
   -25.3756 -25.3705 -25.3704 -25.3634 -25.3573 -25.3573 -25.3532 -25.3532
   -25.3527 -25.3527 -25.3518 -25.3460 -25.3456 -25.3456 -25.3426 -25.3425
   -25.3403 -25.3402 -25.3366 -25.3340 -25.3313 -25.3276 -25.3276 -25.3238
   -25.3129 -25.3129 -25.3001 -25.2892 -25.2891 -25.2722 -25.2699 -25.2698
   -25.2551 -25.2491 -25.2430 -25.2429 -25.2428 -25.2428 -25.2425 -25.2424
   -25.2400 -25.2400 -25.2365 -25.2363 -25.2363 -25.2350 -25.2350 -25.2341
   -25.2339 -25.2321 -25.2321 -25.2283 -25.2236 -25.2236 -25.2140 -25.2140
   -25.2114 -25.2114 -25.2077 -25.2076 -25.2066 -25.2065 -25.1966 -25.1965
   -10.3466 -10.1743 -10.1741 -10.1023  -9.9890  -9.9888  -9.8344  -9.8259
    -9.7627  -9.7626  -9.7612  -9.7610  -9.6729  -9.4208  -9.4207  -9.4188
    -9.4187  -9.3348  -9.3346  -9.2976  -9.2104  -9.1708  -9.1640  -9.1638
    -9.1557  -9.1555  -9.1187  -9.0642  -9.0641  -9.0553  -9.0553  -9.0533
    -9.0532  -9.0473  -9.0471  -9.0471  -9.0470  -9.0326  -9.0168  -9.0084
    -8.9632  -8.8329  -8.8270  -8.8268  -8.8113  -8.8111  -8.8028  -8.8027
    -8.8020  -8.8020  -8.7935  -8.7935  -8.7666  -8.7665  -8.7585  -8.7584
    -8.7563  -8.7561  -8.7123  -8.7014  -8.6832  -8.6831  -8.6793  -8.6793
     2.4333   2.4907   2.4909   2.5242   2.5244   2.5473   2.5475   2.5784
     2.7046   2.7219   2.7221   2.7305   2.7307   2.7491   2.7536   2.7538
     2.8026   2.8026   2.8444   2.8444   2.8879   2.8880   2.9157   2.9157
     2.9987   3.0243   3.0328   3.0628   3.0630   3.0698   3.0912   3.0913
     3.0931   3.1086   3.1087   3.1114   3.1201   3.1203   3.1258   3.1259
     3.1484   3.1485   3.2337   3.2337   3.3237   3.3238   3.4060   3.4061
     3.4304   3.4305   3.4351   3.4814   3.4816   3.4866   3.5525   3.5692
     3.5692   3.6317   3.6318   3.6518   3.6520   3.6814   3.6816   3.7900
     3.8320   3.8321   3.8908   3.8910   3.9246   3.9263   4.0740   4.0741
     4.1548   4.1548   4.2510   4.2510   4.3954   4.4080   4.4083   4.4247
     4.4488   4.4490   4.4544   4.4546   4.4606   4.5558   4.5559   4.5602
     4.5604   4.5626   4.5626   4.7137   4.7138   4.7213   4.7214   4.7592
     4.7945   4.7946   4.8808   4.8809   4.9389   4.9622   4.9624   4.9654
     4.9655   4.9664   4.9790   4.9792   4.9945   5.0082   5.0087   5.0124
     5.0206   5.0207   5.0305   5.0306   5.0824   5.4015   5.4016   5.5499
     5.5501   5.5528   5.5529   5.5578   5.5675   5.5753   5.5755   5.6035
     5.6037   5.6145   5.6779   5.7818   5.7820   5.8135   5.8136   5.8696
     5.8951   5.8953   5.9082   5.9085   5.9605   5.9636   5.9810   6.0152
     6.0153   6.0933   6.0934   6.2760   6.2760   6.2766   6.2882   6.3122
     6.3124   6.3193   6.3460   6.3461   6.4028   6.4030   6.4064   6.4112
     6.4112   6.4156   6.4811   6.4813   6.4889   6.5547   6.5580   6.5722
     6.5725   6.6002   6.6004   6.6079   6.6081   6.6321   6.6323   6.6374
     6.6374   6.6447   6.6467   6.6995   6.6997   6.7311   6.7313   6.7384
     6.7386   6.7650   6.7761   6.7763   6.7858   6.8938   6.9627   6.9629
     9.8957   9.8958   9.9152   9.9175  10.2245  10.2357  10.2537  10.2537
    10.2729  10.2729  10.2762  10.3774  10.3774  10.4185  10.4185  10.4419
    10.4449  10.4449  10.4590  10.4590  10.4929  10.4930  10.5921  10.5922
    10.6041  10.6041  10.6108  10.6454  10.6454  10.6549  10.7201  10.7202
    10.7483  10.7870  10.7871  10.7899  10.7975  10.8060  10.8061  10.8106
    10.8107  10.8109  10.8109  10.8339  10.8340  10.8672  10.8840  10.8840
    10.9066  10.9066  10.9694  10.9991  11.0139  11.0139  11.0928  11.0929
    11.0951  11.0952  11.1046  11.1332  11.1403  11.1404  11.1411  11.1573
    11.1574  11.2375  11.2376  11.2951  11.3480  11.3481  11.5708  11.5759
    11.5760  11.5806  11.5807  11.5944  11.6032

          k = 0.0000 0.3333 0.1320 ( 25980 PWs)   bands (ev):

   -49.0890 -49.0861 -49.0826 -49.0806 -49.0759 -49.0737 -49.0727 -49.0726
   -49.0725 -49.0725 -49.0699 -49.0692 -49.0661 -49.0659 -49.0659 -49.0659
   -49.0540 -49.0511 -49.0509 -49.0507 -49.0507 -49.0507 -49.0473 -49.0473
   -49.0464 -49.0463 -49.0462 -49.0462 -49.0404 -49.0383 -49.0369 -49.0341
   -25.6177 -25.6074 -25.5991 -25.5950 -25.5817 -25.5816 -25.5794 -25.5794
   -25.5742 -25.5742 -25.5727 -25.5726 -25.5545 -25.5381 -25.5317 -25.5167
   -25.5166 -25.5147 -25.5146 -25.4904 -25.4792 -25.4792 -25.4732 -25.4732
   -25.4509 -25.4498 -25.4339 -25.4248 -25.4108 -25.3950 -25.3747 -25.3747
   -25.3735 -25.3721 -25.3721 -25.3661 -25.3568 -25.3567 -25.3547 -25.3546
   -25.3508 -25.3506 -25.3506 -25.3474 -25.3472 -25.3472 -25.3450 -25.3429
   -25.3372 -25.3371 -25.3347 -25.3328 -25.3246 -25.3236 -25.3236 -25.3166
   -25.3165 -25.3156 -25.2992 -25.2967 -25.2955 -25.2909 -25.2699 -25.2658
   -25.2531 -25.2486 -25.2479 -25.2458 -25.2421 -25.2421 -25.2410 -25.2410
   -25.2395 -25.2383 -25.2381 -25.2374 -25.2354 -25.2348 -25.2345 -25.2345
   -25.2331 -25.2331 -25.2292 -25.2290 -25.2192 -25.2122 -25.2122 -25.2114
   -25.2104 -25.2103 -25.2086 -25.2086 -25.2082 -25.2082 -25.2026 -25.2005
   -10.3265 -10.2675 -10.0884 -10.0540 -10.0488  -9.9197  -9.9197  -9.8595
    -9.7624  -9.7622  -9.7616  -9.7614  -9.5804  -9.4497  -9.4203  -9.4202
    -9.4193  -9.4192  -9.2744  -9.2472  -9.2206  -9.2068  -9.1872  -9.1843
    -9.1285  -9.1194  -9.1155  -9.0675  -9.0620  -9.0620  -9.0576  -9.0576
    -9.0517  -9.0517  -9.0487  -9.0486  -9.0432  -9.0342  -9.0255  -9.0168
    -8.9233  -8.8617  -8.8239  -8.8237  -8.8201  -8.8166  -8.8165  -8.7984
    -8.7984  -8.7948  -8.7948  -8.7900  -8.7647  -8.7645  -8.7606  -8.7604
    -8.7547  -8.7271  -8.7232  -8.7080  -8.6823  -8.6822  -8.6803  -8.6802
     2.4400   2.4598   2.5284   2.5298   2.5300   2.5413   2.5415   2.5631
     2.7063   2.7120   2.7331   2.7333   2.7343   2.7428   2.7430   2.7449
     2.8277   2.8277   2.8607   2.8607   2.8683   2.8683   2.8962   2.8963
     3.0301   3.0369   3.0479   3.0674   3.0728   3.0780   3.0807   3.0891
     3.1015   3.1088   3.1132   3.1133   3.1158   3.1218   3.1219   3.1281
     3.1282   3.1421   3.1422   3.1802   3.3540   3.4199   3.4200   3.4210
     3.4364   3.4460   3.4461   3.4466   3.4558   3.4559   3.4966   3.4966
     3.5722   3.6140   3.6955   3.6990   3.7449   3.7450   3.7617   3.7773
     3.8366   3.8571   3.8573   3.8785   3.9066   3.9066   4.0614   4.0614
     4.0966   4.0966   4.1801   4.1802   4.4086   4.4110   4.4180   4.4426
     4.4472   4.4474   4.4486   4.4489   4.5107   4.5580   4.5581   4.5597
     4.5598   4.5975   4.5975   4.6732   4.6733   4.7221   4.7584   4.7585
     4.7739   4.7905   4.7906   4.8179   4.9408   4.9420   4.9479   4.9679
     4.9723   4.9824   4.9865   4.9870   4.9923   5.0010   5.0828   5.0954
     5.0955   5.1637   5.1654   5.1655   5.1742   5.2740   5.2741   5.3668
     5.3796   5.4188   5.4189   5.4775   5.5737   5.5885   5.6125   5.6147
     5.6870   5.7068   5.7516   5.7619   5.8443   5.8599   5.8837   5.8839
     5.8941   5.8943   5.9046   5.9421   5.9591   5.9591   5.9764   6.0224
     6.0834   6.0835   6.1465   6.1465   6.1811   6.2249   6.2249   6.2709
     6.2914   6.3208   6.3413   6.3740   6.4006   6.4048   6.4347   6.4506
     6.4758   6.4758   6.5164   6.5166   6.5274   6.5581   6.5583   6.5609
     6.5776   6.5883   6.6058   6.6077   6.6079   6.6189   6.6190   6.6228
     6.6389   6.6410   6.6412   6.6493   6.6499   6.6932   6.7362   6.7468
     6.7603   6.7679   6.8210   6.8212   6.8405   6.8803   6.9244   6.9245
     9.9002   9.9010   9.9108   9.9111  10.2324  10.2406  10.2465  10.2497
    10.2592  10.2683  10.3197  10.3914  10.3928  10.3928  10.4209  10.4209
    10.4265  10.4265  10.4350  10.4350  10.5327  10.5327  10.5828  10.5828
    10.6064  10.6064  10.6338  10.6338  10.6634  10.6679  10.6856  10.7529
    10.7555  10.7691  10.7798  10.7992  10.7993  10.8052  10.8067  10.8068
    10.8081  10.8082  10.8096  10.8224  10.8225  10.8379  10.8715  10.8844
    10.9342  10.9382  10.9593  10.9825  11.0368  11.0369  11.0756  11.0756
    11.1062  11.1063  11.1191  11.1286  11.1287  11.1387  11.1466  11.1500
    11.1550  11.1634  11.2944  11.3039  11.3382  11.4332  11.4577  11.5349
    11.5775  11.5776  11.5796  11.5796  11.6669

          k = 0.3333 0.3333 0.0000 ( 25915 PWs)   bands (ev):

   -49.0873 -49.0807 -49.0807 -49.0797 -49.0796 -49.0753 -49.0751 -49.0751
   -49.0751 -49.0741 -49.0697 -49.0696 -49.0656 -49.0655 -49.0613 -49.0608
   -49.0592 -49.0586 -49.0544 -49.0544 -49.0482 -49.0481 -49.0449 -49.0447
   -49.0447 -49.0447 -49.0437 -49.0424 -49.0424 -49.0392 -49.0391 -49.0346
   -25.6205 -25.6088 -25.6088 -25.5986 -25.5751 -25.5750 -25.5750 -25.5750
   -25.5742 -25.5741 -25.5710 -25.5710 -25.5314 -25.5313 -25.5281 -25.5279
   -25.4937 -25.4937 -25.4762 -25.4740 -25.4740 -25.4658 -25.4656 -25.4561
   -25.4561 -25.4561 -25.4561 -25.4351 -25.4351 -25.4047 -25.4047 -25.3832
   -25.3732 -25.3732 -25.3678 -25.3574 -25.3574 -25.3573 -25.3573 -25.3568
   -25.3566 -25.3546 -25.3546 -25.3512 -25.3512 -25.3508 -25.3508 -25.3439
   -25.3417 -25.3416 -25.3339 -25.3338 -25.3338 -25.3314 -25.3314 -25.3083
   -25.3082 -25.3029 -25.3029 -25.3028 -25.3028 -25.2823 -25.2802 -25.2801
   -25.2574 -25.2513 -25.2512 -25.2466 -25.2439 -25.2439 -25.2417 -25.2417
   -25.2417 -25.2417 -25.2365 -25.2365 -25.2356 -25.2356 -25.2340 -25.2339
   -25.2258 -25.2258 -25.2257 -25.2256 -25.2253 -25.2253 -25.2158 -25.2157
   -25.2157 -25.2157 -25.2103 -25.2103 -25.1932 -25.1915 -25.1914 -25.1910
   -10.2239 -10.0597 -10.0595  -9.9635  -9.9634  -9.8491  -9.8490  -9.8489
    -9.8489  -9.6791  -9.6791  -9.6670  -9.6669  -9.6594  -9.5584  -9.5583
    -9.3230  -9.3221  -9.2988  -9.2988  -9.2859  -9.2857  -9.1540  -9.1468
    -9.1467  -9.1466  -9.1465  -9.1241  -9.0978  -9.0976  -9.0954  -9.0952
    -9.0652  -9.0651  -8.9976  -8.9853  -8.9852  -8.9760  -8.9759  -8.9758
    -8.9757  -8.9533  -8.9532  -8.9206  -8.9205  -8.8889  -8.8507  -8.8505
    -8.8182  -8.8182  -8.7749  -8.7747  -8.7727  -8.7718  -8.7298  -8.7297
    -8.7296  -8.7296  -8.6894  -8.6733  -8.6732  -8.6718  -8.6718  -8.6243
     2.4332   2.4526   2.4526   2.4593   2.4594   2.4860   2.4860   2.4861
     2.4862   2.4967   2.4968   2.5288   2.5288   2.6224   2.6225   2.6637
     2.6638   2.6678   2.7227   2.7228   2.7288   2.7566   2.7566   2.7950
     2.7950   2.7951   2.7951   2.8191   2.8192   2.8334   2.8335   2.8531
     3.0029   3.0053   3.0188   3.0189   3.2778   3.2779   3.3683   3.3684
     3.3684   3.3684   3.4170   3.4171   3.5262   3.5263   3.6147   3.6152
     3.6787   3.6791   3.6970   3.6970   3.6972   3.6972   3.7108   3.7108
     3.7498   3.7499   3.9024   3.9024   3.9773   3.9778   3.9778   4.0118
     4.0119   4.1579   4.2287   4.2710   4.2715   4.2834   4.2834   4.2944
     4.3584   4.3585   4.3620   4.3620   4.3622   4.3622   4.4282   4.4282
     4.4461   4.4461   4.4642   4.4642   4.4819   4.4819   4.4821   4.4821
     4.5152   4.5278   4.5280   4.5400   4.5401   4.5591   4.5592   4.6248
     4.6370   4.6370   4.6449   4.6457   4.6457   4.6702   4.6703   4.9706
     4.9706   4.9707   4.9707   4.9914   4.9914   5.1200   5.1201   5.1207
     5.1776   5.1777   5.1862   5.3012   5.5278   5.5278   5.5595   5.5596
     5.5596   5.5596   5.6050   5.6051   5.6350   5.6351   5.6703   5.6704
     5.7226   5.7228   5.7621   5.7634   5.7640   5.7848   5.7848   5.7848
     5.7848   5.8135   5.8136   5.8599   5.8600   5.9740   6.0069   6.0156
     6.0156   6.0187   6.0187   6.0189   6.0189   6.0237   6.0237   6.1808
     6.1808   6.2530   6.2531   6.2571   6.2579   6.2780   6.2782   6.3827
     6.4518   6.4519   6.4647   6.5052   6.5052   6.5240   6.5241   6.5242
     6.5242   6.5373   6.5373   6.5531   6.5533   6.5590   6.5970   6.5971
     6.6278   6.6279   6.7867   6.7867   6.7868   6.7868   6.7880   6.7881
     6.8025   6.8027   6.8287   6.8288   6.8346   6.8354   6.9467   6.9589
    10.2300  10.2314  10.2315  10.2451  10.2454  10.2598  10.2598  10.2723
    10.2728  10.2996  10.2996  10.3307  10.3307  10.3308  10.3308  10.3339
    10.3339  10.4027  10.4027  10.4508  10.4509  10.4628  10.4628  10.5183
    10.5183  10.5183  10.5184  10.5588  10.5589  10.5701  10.6883  10.6883
    10.6930  10.6930  10.7522  10.7528  10.7539  10.7539  10.7539  10.7539
    10.7773  10.7773  10.7837  10.7837  10.7927  10.7927  10.8740  10.8740
    10.8940  10.8941  10.9775  10.9775  11.0096  11.0096  11.0102  11.0102
    11.0923  11.0923  11.1198  11.1240  11.1241  11.1241  11.1241  11.1464
    11.2326  11.2580  11.2581  11.2581  11.2582  11.2595  11.2595  11.2983
    11.2985  11.3199  11.3199  11.3347  11.3349

          k = 0.3333 0.3333 0.1320 ( 25953 PWs)   bands (ev):

   -49.0864 -49.0838 -49.0801 -49.0800 -49.0782 -49.0781 -49.0742 -49.0736
   -49.0720 -49.0714 -49.0714 -49.0679 -49.0676 -49.0675 -49.0665 -49.0628
   -49.0550 -49.0542 -49.0524 -49.0523 -49.0513 -49.0486 -49.0485 -49.0479
   -49.0457 -49.0442 -49.0418 -49.0417 -49.0399 -49.0398 -49.0382 -49.0355
   -25.6146 -25.6050 -25.6049 -25.5978 -25.5958 -25.5931 -25.5931 -25.5871
   -25.5582 -25.5552 -25.5552 -25.5426 -25.5382 -25.5381 -25.5368 -25.5153
   -25.5036 -25.5002 -25.4852 -25.4789 -25.4715 -25.4715 -25.4654 -25.4654
   -25.4464 -25.4464 -25.4386 -25.4385 -25.4385 -25.4189 -25.3934 -25.3858
   -25.3717 -25.3713 -25.3688 -25.3663 -25.3584 -25.3584 -25.3564 -25.3555
   -25.3554 -25.3548 -25.3548 -25.3533 -25.3521 -25.3520 -25.3501 -25.3456
   -25.3454 -25.3359 -25.3328 -25.3310 -25.3249 -25.3248 -25.3212 -25.3107
   -25.3107 -25.3068 -25.3068 -25.3032 -25.3031 -25.2963 -25.2807 -25.2777
   -25.2551 -25.2500 -25.2500 -25.2499 -25.2463 -25.2463 -25.2450 -25.2411
   -25.2383 -25.2382 -25.2381 -25.2363 -25.2362 -25.2353 -25.2344 -25.2335
   -25.2318 -25.2285 -25.2252 -25.2251 -25.2231 -25.2231 -25.2225 -25.2175
   -25.2100 -25.2050 -25.2049 -25.2021 -25.1959 -25.1958 -25.1955 -25.1955
   -10.2048 -10.1486  -9.9498  -9.9497  -9.9439  -9.9100  -9.9099  -9.8098
    -9.7762  -9.7762  -9.7091  -9.7091  -9.6475  -9.6129  -9.5256  -9.4880
    -9.4074  -9.3956  -9.2709  -9.2709  -9.2393  -9.2100  -9.2100  -9.2039
    -9.1630  -9.1594  -9.1306  -9.1214  -9.0982  -9.0981  -9.0722  -9.0721
    -9.0574  -9.0460  -9.0108  -9.0093  -8.9872  -8.9871  -8.9864  -8.9864
    -8.9564  -8.9564  -8.9333  -8.9333  -8.8923  -8.8829  -8.8688  -8.8310
    -8.8286  -8.8026  -8.8012  -8.8012  -8.7663  -8.7663  -8.7390  -8.7293
    -8.7049  -8.6996  -8.6990  -8.6990  -8.6789  -8.6788  -8.6473  -8.6302
     2.4378   2.4487   2.4565   2.4566   2.4671   2.4683   2.4683   2.4768
     2.5058   2.5058   2.5221   2.5221   2.5303   2.5744   2.6641   2.6666
     2.6692   2.6713   2.6912   2.7096   2.7594   2.7625   2.7626   2.7773
     2.7773   2.7933   2.8115   2.8116   2.8259   2.8260   2.8368   2.8483
     3.0414   3.0579   3.0664   3.0664   3.1394   3.1926   3.1926   3.2033
     3.4248   3.5143   3.5143   3.5303   3.5303   3.5434   3.6318   3.6378
     3.6545   3.6826   3.6918   3.7103   3.7103   3.7654   3.7765   3.7766
     3.8366   3.8540   3.8640   3.8640   3.8776   3.8776   3.8832   3.9317
     3.9807   4.0399   4.1284   4.2040   4.2821   4.2822   4.3120   4.3174
     4.3174   4.3331   4.3874   4.3955   4.3956   4.4162   4.4349   4.4349
     4.4360   4.4360   4.4457   4.4457   4.4713   4.4968   4.5057   4.5247
     4.5492   4.5492   4.5551   4.5643   4.5711   4.5785   4.6054   4.6121
     4.6146   4.6146   4.6207   4.6226   4.6620   4.6620   4.8190   4.8356
     4.8356   4.9775   5.0350   5.0350   5.0384   5.0384   5.2261   5.2294
     5.2406   5.2406   5.2682   5.2882   5.4388   5.4388   5.4641   5.4781
     5.5290   5.5290   5.5398   5.5398   5.6060   5.6298   5.6380   5.6416
     5.6447   5.7111   5.7244   5.7255   5.7255   5.7855   5.7855   5.7890
     5.9302   5.9423   5.9423   5.9450   5.9714   5.9853   5.9981   5.9981
     6.0067   6.0067   6.0147   6.0147   6.0351   6.0852   6.0852   6.1228
     6.1431   6.1718   6.1718   6.2186   6.2777   6.3496   6.3585   6.3622
     6.4448   6.4516   6.4592   6.4615   6.4615   6.4701   6.4701   6.5016
     6.5412   6.5560   6.5588   6.5831   6.5831   6.6015   6.6015   6.6397
     6.6715   6.6937   6.6937   6.7223   6.7578   6.7579   6.7854   6.7855
     6.7876   6.7876   6.8171   6.8751   6.8965   6.9094   6.9136   6.9274
    10.2230  10.2290  10.2351  10.2470  10.2493  10.2612  10.2661  10.2666
    10.2828  10.3001  10.3001  10.3065  10.3082  10.3082  10.3626  10.3627
    10.3641  10.3916  10.3916  10.4012  10.4667  10.4667  10.4843  10.4843
    10.5182  10.5500  10.5500  10.5595  10.5596  10.5840  10.6038  10.6270
    10.7416  10.7454  10.7454  10.7536  10.7560  10.7623  10.7623  10.7666
    10.7676  10.7730  10.7731  10.7868  10.7868  10.8069  10.8341  10.8364
    10.9164  10.9457  10.9625  10.9838  11.0031  11.0032  11.0466  11.0591
    11.0627  11.0627  11.0955  11.1123  11.1124  11.1124  11.1444  11.1445
    11.2395  11.2395  11.2521  11.2521  11.2662  11.2903  11.2903  11.2992
    11.3107  11.3118  11.3119  11.3131  11.3194

 ------ SPIN DOWN ----------


          k = 0.0000 0.0000 0.0000 ( 25997 PWs)   bands (ev):

   -49.0923 -49.0835 -49.0834 -49.0752 -49.0750 -49.0750 -49.0750 -49.0750
   -49.0749 -49.0749 -49.0749 -49.0623 -49.0617 -49.0580 -49.0580 -49.0579
   -49.0578 -49.0575 -49.0574 -49.0573 -49.0573 -49.0448 -49.0446 -49.0446
   -49.0446 -49.0446 -49.0445 -49.0445 -49.0445 -49.0405 -49.0404 -49.0314
   -25.6275 -25.5852 -25.5851 -25.5851 -25.5851 -25.5792 -25.5791 -25.5791
   -25.5791 -25.5668 -25.5667 -25.5549 -25.5548 -25.5547 -25.5547 -25.5545
   -25.5544 -25.5542 -25.5542 -25.4703 -25.4703 -25.4703 -25.4702 -25.4536
   -25.4536 -25.4536 -25.4536 -25.4205 -25.4203 -25.3710 -25.3710 -25.3708
   -25.3708 -25.3704 -25.3703 -25.3701 -25.3701 -25.3536 -25.3536 -25.3434
   -25.3434 -25.3433 -25.3433 -25.3388 -25.3388 -25.3387 -25.3387 -25.3386
   -25.3386 -25.3385 -25.3385 -25.3301 -25.3301 -25.3171 -25.3171 -25.3171
   -25.3170 -25.2976 -25.2976 -25.2975 -25.2975 -25.2668 -25.2667 -25.2575
   -25.2575 -25.2431 -25.2431 -25.2430 -25.2430 -25.2422 -25.2422 -25.2421
   -25.2421 -25.2417 -25.2417 -25.2416 -25.2416 -25.2328 -25.2328 -25.2205
   -25.2205 -25.2204 -25.2204 -25.2201 -25.2200 -25.2198 -25.2198 -25.2198
   -25.2198 -25.2196 -25.2196 -25.2105 -25.2105 -25.2105 -25.2104 -25.2038
   -10.4627 -10.2776 -10.2774  -9.9133  -9.9132  -9.9131  -9.9131  -9.9120
    -9.9120  -9.9119  -9.9119  -9.8336  -9.8335  -9.3992  -9.3991  -9.2659
    -9.2242  -9.2074  -9.2073  -9.1444  -9.1444  -9.1443  -9.1442  -9.1428
    -9.1428  -9.1427  -9.1427  -9.0923  -9.0923  -9.0922  -9.0922  -9.0850
    -9.0850  -9.0850  -9.0850  -9.0407  -9.0406  -8.8629  -8.8629  -8.8629
    -8.8628  -8.8503  -8.8503  -8.8503  -8.8502  -8.8471  -8.8471  -8.8469
    -8.8469  -8.8337  -8.8336  -8.8287  -8.8287  -8.8285  -8.8285  -8.7348
    -8.6805  -8.6804  -8.6804  -8.6804  -8.6789  -8.6788  -8.6788  -8.6788
     2.7879   2.7879   2.7879   2.7880   2.8016   2.8016   2.8016   2.8016
     2.8551   2.8551   2.8556   2.8556   2.9878   3.0032   3.0032   3.0036
     3.0037   3.0177   3.0177   3.0493   3.0493   3.0494   3.0495   3.0511
     3.0511   3.0515   3.0518   3.0814   3.0814   3.1046   3.1046   3.1048
     3.1048   3.1060   3.1060   3.1062   3.1062   3.1152   3.1152   3.1152
     3.1153   3.1168   3.1168   3.1169   3.1169   3.1490   3.1491   3.1494
     3.1496   3.1906   3.1907   3.3603   3.3603   3.3604   3.3605   3.4018
     3.4019   3.4020   3.4020   3.4167   3.4174   3.5763   3.5763   3.5767
     3.5768   3.6057   3.6059   3.6117   3.6118   3.6121   3.6121   3.9147
     3.9147   3.9147   3.9147   3.9486   4.1877   4.1877   4.1878   4.1878
     4.3064   4.3064   4.3072   4.3073   4.5593   4.5593   4.5601   4.5602
     4.5656   4.5656   4.5656   4.5657   4.9749   5.0127   5.0127   5.0130
     5.0130   5.0131   5.0132   5.0136   5.0136   5.0492   5.0492   5.0494
     5.0494   5.1010   5.1010   5.1010   5.1010   5.1248   5.1249   5.1250
     5.1250   5.1857   5.1857   5.1858   5.1859   5.2645   5.2645   5.2646
     5.2646   5.3605   5.3605   5.3606   5.3606   5.3617   5.3617   5.3626
     5.3627   5.4976   5.4978   5.8286   5.8296   5.8587   5.8587   5.8599
     5.8599   6.0172   6.0172   6.0174   6.0174   6.0882   6.0882   6.1053
     6.1054   6.1358   6.1358   6.1358   6.1358   6.2562   6.2562   6.2563
     6.2563   6.2978   6.2978   6.2980   6.2980   6.3540   6.3540   6.3541
     6.3541   6.4109   6.5537   6.5537   6.5537   6.5537   6.5628   6.5628
     6.5690   6.5691   6.5692   6.5692   6.5708   6.5709   6.5710   6.5710
     6.6514   6.6514   6.6518   6.6521   6.7615   6.7615   6.9412   6.9412
     6.9419   6.9421   7.0312   7.0312   7.0313   7.0314   7.1574   7.1574
     9.4062   9.5082   9.5084   9.7633   9.7637  10.0301  10.0302  10.1435
    10.4374  10.4375  10.4375  10.4375  10.5061  10.5061  10.5062  10.5062
    10.6249  10.6250  10.6250  10.6250  10.6520  10.6520  10.6522  10.6523
    10.6567  10.6568  10.6568  10.6568  10.7770  10.7770  10.7771  10.7771
    10.8327  10.8327  10.8328  10.8328  10.8601  10.8601  10.8602  10.8602
    10.8954  10.8954  10.8955  10.8955  10.9026  10.9026  10.9027  10.9027
    10.9635  10.9635  10.9636  10.9636  11.0163  11.0163  11.0165  11.0166
    11.1162  11.1162  11.2306  11.2306  11.2307  11.2307  11.5094  11.5094
    11.6014  11.6014  11.6174  11.6174  11.6174  11.6174  11.7216  11.7217
    11.7217  11.7217  11.8911  11.8912  11.8912

          k = 0.0000 0.0000 0.1320 ( 25988 PWs)   bands (ev):

   -49.0913 -49.0883 -49.0772 -49.0752 -49.0750 -49.0750 -49.0750 -49.0750
   -49.0749 -49.0749 -49.0749 -49.0699 -49.0580 -49.0580 -49.0579 -49.0578
   -49.0575 -49.0574 -49.0573 -49.0573 -49.0541 -49.0467 -49.0448 -49.0446
   -49.0446 -49.0446 -49.0446 -49.0445 -49.0445 -49.0445 -49.0355 -49.0325
   -25.6211 -25.6006 -25.5839 -25.5838 -25.5838 -25.5838 -25.5811 -25.5810
   -25.5810 -25.5810 -25.5544 -25.5543 -25.5542 -25.5542 -25.5541 -25.5541
   -25.5539 -25.5539 -25.5230 -25.4728 -25.4663 -25.4663 -25.4663 -25.4662
   -25.4580 -25.4580 -25.4580 -25.4580 -25.3706 -25.3706 -25.3705 -25.3704
   -25.3703 -25.3703 -25.3702 -25.3702 -25.3645 -25.3521 -25.3521 -25.3486
   -25.3486 -25.3388 -25.3388 -25.3387 -25.3387 -25.3387 -25.3387 -25.3386
   -25.3386 -25.3379 -25.3379 -25.3327 -25.3327 -25.3126 -25.3123 -25.3123
   -25.3123 -25.3123 -25.3026 -25.3025 -25.3025 -25.3025 -25.2554 -25.2554
   -25.2504 -25.2504 -25.2420 -25.2419 -25.2418 -25.2418 -25.2417 -25.2417
   -25.2416 -25.2416 -25.2375 -25.2375 -25.2339 -25.2339 -25.2329 -25.2200
   -25.2199 -25.2198 -25.2197 -25.2196 -25.2195 -25.2194 -25.2193 -25.2176
   -25.2175 -25.2175 -25.2175 -25.2129 -25.2128 -25.2128 -25.2128 -25.2118
   -10.4412 -10.3780 -10.1471  -9.9954  -9.9130  -9.9129  -9.9128  -9.9128
    -9.9123  -9.9122  -9.9121  -9.9121  -9.6730  -9.5248  -9.3040  -9.2595
    -9.2443  -9.2399  -9.1623  -9.1443  -9.1443  -9.1442  -9.1442  -9.1427
    -9.1427  -9.1427  -9.1427  -9.1060  -9.0905  -9.0905  -9.0905  -9.0905
    -9.0869  -9.0868  -9.0868  -9.0868  -8.9699  -8.8988  -8.8613  -8.8613
    -8.8613  -8.8612  -8.8566  -8.8566  -8.8566  -8.8565  -8.8393  -8.8393
    -8.8392  -8.8391  -8.8316  -8.8316  -8.8315  -8.8315  -8.7811  -8.7467
    -8.6804  -8.6804  -8.6803  -8.6803  -8.6788  -8.6787  -8.6787  -8.6787
     2.7913   2.7913   2.7913   2.7913   2.7981   2.7981   2.7981   2.7981
     2.8790   2.8790   2.8795   2.8795   2.9419   2.9420   2.9424   2.9425
     3.0148   3.0217   3.0217   3.0332   3.0332   3.0654   3.0654   3.0773
     3.0773   3.0892   3.0993   3.0994   3.0997   3.1000   3.1049   3.1050
     3.1051   3.1051   3.1056   3.1057   3.1058   3.1058   3.1156   3.1156
     3.1157   3.1157   3.1164   3.1164   3.1165   3.1166   3.1373   3.1374
     3.1377   3.1379   3.2915   3.3685   3.3690   3.3691   3.3692   3.3692
     3.3896   3.3897   3.3897   3.3898   3.4562   3.5122   3.5863   3.5863
     3.5866   3.5867   3.6040   3.6040   3.6043   3.6044   3.7381   3.8794
     3.9680   3.9680   3.9680   3.9680   4.0953   4.0953   4.0953   4.0953
     4.3562   4.3562   4.3570   4.3570   4.4785   4.4785   4.4794   4.4794
     4.6914   4.6914   4.6914   4.6914   4.9238   4.9238   4.9238   4.9238
     5.0127   5.0127   5.0129   5.0129   5.0132   5.0132   5.0135   5.0135
     5.0620   5.0621   5.0622   5.0622   5.0695   5.0958   5.0958   5.0959
     5.0960   5.2155   5.2155   5.2157   5.2157   5.2509   5.2509   5.2510
     5.2511   5.2784   5.4886   5.4886   5.4896   5.4897   5.5495   5.5495
     5.5495   5.5496   5.6684   5.7279   5.7280   5.7291   5.7291   5.7722
     5.8194   5.8194   5.8194   5.8195   5.8834   5.9733   6.1082   6.1082
     6.1661   6.1661   6.2420   6.2420   6.2421   6.2421   6.2515   6.2868
     6.2868   6.2870   6.2870   6.3669   6.3692   6.3692   6.4058   6.4058
     6.4058   6.4059   6.4896   6.4896   6.5097   6.5097   6.5097   6.5097
     6.5695   6.5695   6.5696   6.5697   6.5704   6.5704   6.5706   6.5706
     6.7431   6.7431   6.7436   6.7438   6.8299   6.8299   6.8830   6.8831
     6.8837   6.8840   6.9371   6.9371   7.1011   7.1011   7.1434   7.1434
     9.4174   9.4520   9.5827   9.6692   9.8597   9.9503  10.0906  10.1300
    10.4629  10.4630  10.4630  10.4630  10.5341  10.5342  10.5342  10.5342
    10.5362  10.5362  10.5363  10.5364  10.6065  10.6065  10.6066  10.6067
    10.7586  10.7587  10.7587  10.7587  10.7824  10.7825  10.7825  10.7825
    10.8034  10.8035  10.8035  10.8035  10.8557  10.8558  10.8558  10.8558
    10.9012  10.9012  10.9013  10.9013  10.9412  10.9412  10.9413  10.9414
    10.9457  10.9458  10.9458  10.9459  10.9960  10.9960  10.9961  10.9962
    11.1298  11.1298  11.1672  11.1672  11.3170  11.3170  11.4237  11.4237
    11.6417  11.6418  11.6418  11.6418  11.6874  11.6874  11.6927  11.6928
    11.6928  11.6928  11.7968  11.7968  11.9150

          k = 0.0000 0.3333 0.0000 ( 25971 PWs)   bands (ev):

   -49.0898 -49.0831 -49.0816 -49.0815 -49.0774 -49.0773 -49.0726 -49.0724
   -49.0724 -49.0723 -49.0679 -49.0659 -49.0658 -49.0658 -49.0657 -49.0635
   -49.0594 -49.0528 -49.0507 -49.0506 -49.0506 -49.0505 -49.0462 -49.0461
   -49.0461 -49.0460 -49.0434 -49.0433 -49.0413 -49.0412 -49.0375 -49.0330
   -25.6239 -25.6121 -25.5823 -25.5823 -25.5778 -25.5778 -25.5754 -25.5754
   -25.5743 -25.5743 -25.5722 -25.5721 -25.5696 -25.5695 -25.5325 -25.5174
   -25.5174 -25.5134 -25.5133 -25.4820 -25.4820 -25.4699 -25.4698 -25.4624
   -25.4494 -25.4434 -25.4433 -25.4281 -25.4210 -25.3833 -25.3832 -25.3754
   -25.3754 -25.3703 -25.3702 -25.3632 -25.3571 -25.3571 -25.3530 -25.3530
   -25.3525 -25.3525 -25.3516 -25.3458 -25.3454 -25.3454 -25.3424 -25.3423
   -25.3401 -25.3400 -25.3364 -25.3338 -25.3311 -25.3274 -25.3274 -25.3236
   -25.3127 -25.3126 -25.2999 -25.2890 -25.2889 -25.2720 -25.2697 -25.2696
   -25.2549 -25.2489 -25.2428 -25.2427 -25.2426 -25.2426 -25.2423 -25.2422
   -25.2399 -25.2398 -25.2363 -25.2362 -25.2361 -25.2349 -25.2348 -25.2339
   -25.2337 -25.2320 -25.2319 -25.2282 -25.2234 -25.2234 -25.2138 -25.2138
   -25.2113 -25.2112 -25.2075 -25.2075 -25.2064 -25.2064 -25.1965 -25.1963
   -10.3467 -10.1743 -10.1742 -10.1024  -9.9891  -9.9889  -9.8345  -9.8260
    -9.7628  -9.7627  -9.7613  -9.7611  -9.6730  -9.4209  -9.4208  -9.4189
    -9.4188  -9.3349  -9.3348  -9.2977  -9.2105  -9.1710  -9.1641  -9.1639
    -9.1558  -9.1557  -9.1189  -9.0643  -9.0643  -9.0554  -9.0554  -9.0534
    -9.0533  -9.0474  -9.0472  -9.0472  -9.0471  -9.0328  -9.0169  -9.0085
    -8.9633  -8.8331  -8.8271  -8.8269  -8.8114  -8.8113  -8.8029  -8.8028
    -8.8022  -8.8022  -8.7936  -8.7936  -8.7667  -8.7666  -8.7587  -8.7585
    -8.7564  -8.7562  -8.7124  -8.7015  -8.6834  -8.6833  -8.6795  -8.6794
     2.4334   2.4908   2.4910   2.5243   2.5244   2.5474   2.5476   2.5785
     2.7047   2.7220   2.7222   2.7306   2.7307   2.7492   2.7537   2.7539
     2.8027   2.8027   2.8444   2.8445   2.8880   2.8880   2.9158   2.9158
     2.9988   3.0244   3.0329   3.0629   3.0630   3.0699   3.0912   3.0914
     3.0931   3.1087   3.1088   3.1114   3.1202   3.1203   3.1259   3.1260
     3.1484   3.1486   3.2337   3.2338   3.3237   3.3238   3.4060   3.4062
     3.4305   3.4305   3.4351   3.4815   3.4816   3.4866   3.5525   3.5692
     3.5693   3.6318   3.6318   3.6519   3.6520   3.6815   3.6817   3.7900
     3.8321   3.8321   3.8908   3.8910   3.9246   3.9264   4.0741   4.0741
     4.1548   4.1548   4.2510   4.2511   4.3954   4.4081   4.4083   4.4247
     4.4488   4.4490   4.4544   4.4546   4.4606   4.5558   4.5559   4.5602
     4.5604   4.5626   4.5626   4.7137   4.7138   4.7213   4.7214   4.7591
     4.7945   4.7946   4.8807   4.8808   4.9389   4.9621   4.9623   4.9654
     4.9655   4.9663   4.9789   4.9791   4.9945   5.0083   5.0086   5.0123
     5.0207   5.0208   5.0305   5.0306   5.0824   5.4015   5.4016   5.5500
     5.5501   5.5529   5.5529   5.5578   5.5674   5.5753   5.5755   5.6035
     5.6036   5.6144   5.6778   5.7818   5.7819   5.8134   5.8135   5.8696
     5.8950   5.8952   5.9082   5.9084   5.9604   5.9636   5.9809   6.0152
     6.0152   6.0932   6.0933   6.2759   6.2760   6.2766   6.2881   6.3121
     6.3123   6.3191   6.3460   6.3460   6.4026   6.4028   6.4062   6.4111
     6.4112   6.4155   6.4810   6.4811   6.4889   6.5546   6.5580   6.5721
     6.5723   6.6002   6.6003   6.6078   6.6079   6.6321   6.6322   6.6374
     6.6374   6.6446   6.6466   6.6994   6.6996   6.7309   6.7311   6.7382
     6.7384   6.7648   6.7760   6.7761   6.7857   6.8937   6.9626   6.9627
     9.8960   9.8960   9.9154   9.9177  10.2247  10.2360  10.2539  10.2540
    10.2731  10.2732  10.2764  10.3776  10.3776  10.4188  10.4188  10.4421
    10.4451  10.4451  10.4593  10.4593  10.4932  10.4932  10.5924  10.5924
    10.6043  10.6043  10.6110  10.6455  10.6456  10.6551  10.7203  10.7204
    10.7485  10.7872  10.7873  10.7901  10.7977  10.8062  10.8063  10.8108
    10.8109  10.8110  10.8111  10.8341  10.8342  10.8674  10.8841  10.8842
    10.9068  10.9069  10.9696  10.9992  11.0140  11.0140  11.0929  11.0930
    11.0953  11.0954  11.1048  11.1334  11.1405  11.1405  11.1412  11.1574
    11.1575  11.2377  11.2378  11.2952  11.3482  11.3483  11.5710  11.5760
    11.5761  11.5807  11.5807  11.5945  11.6034

          k = 0.0000 0.3333 0.1320 ( 25980 PWs)   bands (ev):

   -49.0888 -49.0860 -49.0824 -49.0804 -49.0757 -49.0735 -49.0726 -49.0724
   -49.0724 -49.0723 -49.0698 -49.0690 -49.0659 -49.0658 -49.0658 -49.0657
   -49.0538 -49.0509 -49.0507 -49.0506 -49.0506 -49.0505 -49.0472 -49.0471
   -49.0462 -49.0461 -49.0461 -49.0460 -49.0402 -49.0382 -49.0368 -49.0339
   -25.6175 -25.6073 -25.5990 -25.5949 -25.5815 -25.5815 -25.5793 -25.5792
   -25.5741 -25.5740 -25.5725 -25.5725 -25.5543 -25.5379 -25.5316 -25.5165
   -25.5165 -25.5145 -25.5145 -25.4902 -25.4791 -25.4790 -25.4730 -25.4730
   -25.4508 -25.4497 -25.4337 -25.4246 -25.4107 -25.3948 -25.3745 -25.3745
   -25.3733 -25.3719 -25.3719 -25.3659 -25.3566 -25.3565 -25.3545 -25.3544
   -25.3506 -25.3504 -25.3504 -25.3472 -25.3470 -25.3470 -25.3448 -25.3427
   -25.3370 -25.3369 -25.3344 -25.3326 -25.3244 -25.3234 -25.3234 -25.3164
   -25.3163 -25.3154 -25.2990 -25.2965 -25.2953 -25.2907 -25.2697 -25.2656
   -25.2529 -25.2484 -25.2477 -25.2456 -25.2419 -25.2418 -25.2409 -25.2408
   -25.2393 -25.2381 -25.2379 -25.2372 -25.2352 -25.2346 -25.2343 -25.2343
   -25.2329 -25.2329 -25.2290 -25.2288 -25.2190 -25.2121 -25.2120 -25.2113
   -25.2102 -25.2102 -25.2084 -25.2084 -25.2080 -25.2080 -25.2025 -25.2004
   -10.3265 -10.2676 -10.0885 -10.0541 -10.0488  -9.9198  -9.9198  -9.8596
    -9.7625  -9.7623  -9.7617  -9.7615  -9.5805  -9.4499  -9.4204  -9.4203
    -9.4194  -9.4193  -9.2745  -9.2473  -9.2207  -9.2069  -9.1873  -9.1844
    -9.1287  -9.1195  -9.1157  -9.0676  -9.0622  -9.0621  -9.0577  -9.0577
    -9.0519  -9.0518  -9.0488  -9.0487  -9.0433  -9.0343  -9.0256  -9.0169
    -8.9235  -8.8618  -8.8240  -8.8239  -8.8202  -8.8167  -8.8166  -8.7986
    -8.7986  -8.7949  -8.7949  -8.7902  -8.7648  -8.7647  -8.7607  -8.7606
    -8.7548  -8.7272  -8.7233  -8.7081  -8.6824  -8.6823  -8.6804  -8.6803
     2.4401   2.4598   2.5285   2.5299   2.5300   2.5414   2.5416   2.5632
     2.7064   2.7120   2.7332   2.7333   2.7344   2.7429   2.7430   2.7449
     2.8278   2.8278   2.8608   2.8608   2.8683   2.8684   2.8963   2.8963
     3.0302   3.0369   3.0479   3.0675   3.0729   3.0781   3.0808   3.0892
     3.1016   3.1088   3.1133   3.1134   3.1158   3.1218   3.1219   3.1282
     3.1283   3.1421   3.1423   3.1802   3.3540   3.4199   3.4201   3.4210
     3.4365   3.4461   3.4461   3.4467   3.4559   3.4560   3.4966   3.4967
     3.5723   3.6141   3.6955   3.6990   3.7450   3.7450   3.7618   3.7774
     3.8366   3.8572   3.8573   3.8786   3.9067   3.9067   4.0614   4.0614
     4.0966   4.0966   4.1802   4.1802   4.4086   4.4110   4.4180   4.4426
     4.4472   4.4474   4.4487   4.4489   4.5107   4.5580   4.5581   4.5597
     4.5598   4.5975   4.5975   4.6733   4.6733   4.7221   4.7585   4.7585
     4.7739   4.7905   4.7906   4.8178   4.9407   4.9420   4.9478   4.9678
     4.9723   4.9824   4.9864   4.9870   4.9923   5.0010   5.0828   5.0954
     5.0955   5.1637   5.1654   5.1655   5.1742   5.2740   5.2741   5.3669
     5.3796   5.4189   5.4189   5.4774   5.5736   5.5885   5.6125   5.6147
     5.6869   5.7068   5.7516   5.7619   5.8443   5.8598   5.8837   5.8838
     5.8940   5.8942   5.9046   5.9420   5.9591   5.9591   5.9763   6.0223
     6.0834   6.0835   6.1464   6.1465   6.1810   6.2249   6.2249   6.2708
     6.2913   6.3207   6.3413   6.3738   6.4004   6.4047   6.4347   6.4505
     6.4757   6.4757   6.5163   6.5164   6.5273   6.5580   6.5582   6.5608
     6.5775   6.5882   6.6057   6.6076   6.6077   6.6188   6.6189   6.6227
     6.6388   6.6409   6.6410   6.6493   6.6498   6.6931   6.7360   6.7467
     6.7602   6.7677   6.8208   6.8210   6.8403   6.8802   6.9242   6.9243
     9.9004   9.9012   9.9110   9.9114  10.2326  10.2409  10.2467  10.2500
    10.2594  10.2686  10.3199  10.3916  10.3930  10.3931  10.4211  10.4211
    10.4267  10.4267  10.4353  10.4353  10.5329  10.5329  10.5831  10.5831
    10.6066  10.6066  10.6340  10.6340  10.6637  10.6681  10.6858  10.7531
    10.7557  10.7694  10.7800  10.7994  10.7995  10.8054  10.8069  10.8070
    10.8083  10.8083  10.8098  10.8226  10.8227  10.8381  10.8717  10.8846
    10.9344  10.9384  10.9595  10.9827  11.0370  11.0370  11.0757  11.0757
    11.1064  11.1064  11.1193  11.1288  11.1288  11.1388  11.1468  11.1502
    11.1552  11.1636  11.2945  11.3040  11.3384  11.4334  11.4579  11.5350
    11.5776  11.5776  11.5797  11.5797  11.6669

          k = 0.3333 0.3333 0.0000 ( 25915 PWs)   bands (ev):

   -49.0872 -49.0806 -49.0805 -49.0795 -49.0794 -49.0751 -49.0750 -49.0750
   -49.0749 -49.0739 -49.0695 -49.0694 -49.0654 -49.0653 -49.0612 -49.0606
   -49.0590 -49.0584 -49.0543 -49.0542 -49.0480 -49.0479 -49.0447 -49.0446
   -49.0445 -49.0445 -49.0435 -49.0423 -49.0422 -49.0390 -49.0390 -49.0345
   -25.6203 -25.6087 -25.6086 -25.5985 -25.5750 -25.5749 -25.5749 -25.5749
   -25.5740 -25.5740 -25.5709 -25.5708 -25.5312 -25.5311 -25.5279 -25.5277
   -25.4935 -25.4935 -25.4760 -25.4739 -25.4738 -25.4656 -25.4655 -25.4560
   -25.4560 -25.4559 -25.4559 -25.4349 -25.4349 -25.4045 -25.4045 -25.3831
   -25.3730 -25.3730 -25.3676 -25.3572 -25.3572 -25.3571 -25.3571 -25.3566
   -25.3564 -25.3544 -25.3544 -25.3510 -25.3510 -25.3506 -25.3506 -25.3437
   -25.3415 -25.3414 -25.3337 -25.3336 -25.3336 -25.3312 -25.3312 -25.3081
   -25.3080 -25.3027 -25.3027 -25.3026 -25.3026 -25.2821 -25.2800 -25.2799
   -25.2572 -25.2511 -25.2510 -25.2464 -25.2437 -25.2437 -25.2415 -25.2415
   -25.2415 -25.2415 -25.2363 -25.2363 -25.2354 -25.2354 -25.2338 -25.2337
   -25.2256 -25.2256 -25.2256 -25.2254 -25.2251 -25.2251 -25.2156 -25.2156
   -25.2155 -25.2155 -25.2101 -25.2101 -25.1930 -25.1913 -25.1913 -25.1908
   -10.2240 -10.0597 -10.0596  -9.9636  -9.9635  -9.8492  -9.8491  -9.8490
    -9.8490  -9.6792  -9.6792  -9.6671  -9.6670  -9.6595  -9.5585  -9.5584
    -9.3231  -9.3222  -9.2989  -9.2989  -9.2860  -9.2859  -9.1542  -9.1469
    -9.1468  -9.1467  -9.1467  -9.1242  -9.0979  -9.0978  -9.0955  -9.0953
    -9.0653  -9.0652  -8.9978  -8.9854  -8.9854  -8.9761  -8.9761  -8.9759
    -8.9759  -8.9534  -8.9533  -8.9207  -8.9207  -8.8890  -8.8508  -8.8506
    -8.8183  -8.8183  -8.7750  -8.7749  -8.7729  -8.7719  -8.7299  -8.7298
    -8.7297  -8.7297  -8.6895  -8.6734  -8.6733  -8.6719  -8.6719  -8.6244
     2.4333   2.4527   2.4527   2.4594   2.4595   2.4861   2.4861   2.4862
     2.4862   2.4968   2.4968   2.5288   2.5289   2.6225   2.6226   2.6637
     2.6638   2.6678   2.7228   2.7229   2.7288   2.7567   2.7567   2.7950
     2.7951   2.7952   2.7952   2.8191   2.8192   2.8335   2.8335   2.8532
     3.0030   3.0054   3.0189   3.0189   3.2779   3.2779   3.3684   3.3684
     3.3685   3.3685   3.4170   3.4171   3.5263   3.5263   3.6148   3.6153
     3.6788   3.6792   3.6971   3.6971   3.6972   3.6972   3.7109   3.7109
     3.7499   3.7500   3.9025   3.9025   3.9774   3.9778   3.9778   4.0119
     4.0119   4.1579   4.2287   4.2711   4.2715   4.2834   4.2834   4.2944
     4.3584   4.3585   4.3620   4.3621   4.3622   4.3622   4.4282   4.4282
     4.4461   4.4462   4.4642   4.4642   4.4819   4.4819   4.4820   4.4821
     4.5153   4.5278   4.5279   4.5400   4.5401   4.5591   4.5591   4.6248
     4.6370   4.6370   4.6448   4.6456   4.6456   4.6701   4.6702   4.9706
     4.9706   4.9706   4.9707   4.9914   4.9914   5.1200   5.1200   5.1207
     5.1776   5.1777   5.1862   5.3011   5.5277   5.5277   5.5595   5.5595
     5.5596   5.5596   5.6049   5.6050   5.6350   5.6351   5.6703   5.6703
     5.7226   5.7228   5.7620   5.7634   5.7640   5.7847   5.7847   5.7848
     5.7848   5.8135   5.8135   5.8599   5.8600   5.9739   6.0068   6.0155
     6.0155   6.0186   6.0186   6.0188   6.0188   6.0236   6.0236   6.1807
     6.1808   6.2529   6.2530   6.2570   6.2579   6.2779   6.2781   6.3825
     6.4517   6.4518   6.4647   6.5051   6.5051   6.5239   6.5240   6.5240
     6.5241   6.5372   6.5372   6.5529   6.5532   6.5589   6.5970   6.5970
     6.6277   6.6278   6.7866   6.7866   6.7867   6.7867   6.7879   6.7879
     6.8023   6.8025   6.8285   6.8287   6.8345   6.8353   6.9465   6.9587
    10.2303  10.2316  10.2317  10.2453  10.2456  10.2600  10.2601  10.2725
    10.2730  10.2999  10.2999  10.3309  10.3310  10.3310  10.3310  10.3341
    10.3341  10.4029  10.4030  10.4511  10.4511  10.4630  10.4630  10.5185
    10.5185  10.5186  10.5186  10.5590  10.5591  10.5703  10.6885  10.6885
    10.6932  10.6932  10.7524  10.7530  10.7541  10.7541  10.7541  10.7542
    10.7775  10.7775  10.7839  10.7840  10.7929  10.7929  10.8742  10.8742
    10.8941  10.8943  10.9776  10.9777  11.0098  11.0098  11.0104  11.0104
    11.0924  11.0925  11.1199  11.1242  11.1242  11.1243  11.1243  11.1465
    11.2328  11.2582  11.2582  11.2583  11.2583  11.2596  11.2596  11.2981
    11.2982  11.3200  11.3201  11.3347  11.3347

          k = 0.3333 0.3333 0.1320 ( 25953 PWs)   bands (ev):

   -49.0863 -49.0837 -49.0799 -49.0798 -49.0780 -49.0779 -49.0741 -49.0734
   -49.0719 -49.0713 -49.0712 -49.0677 -49.0674 -49.0674 -49.0663 -49.0627
   -49.0548 -49.0541 -49.0522 -49.0522 -49.0511 -49.0484 -49.0483 -49.0477
   -49.0455 -49.0440 -49.0416 -49.0415 -49.0397 -49.0396 -49.0380 -49.0354
   -25.6144 -25.6048 -25.6048 -25.5976 -25.5956 -25.5930 -25.5929 -25.5869
   -25.5580 -25.5551 -25.5550 -25.5425 -25.5380 -25.5380 -25.5366 -25.5151
   -25.5034 -25.5001 -25.4851 -25.4788 -25.4714 -25.4713 -25.4653 -25.4652
   -25.4463 -25.4462 -25.4384 -25.4383 -25.4383 -25.4187 -25.3932 -25.3856
   -25.3715 -25.3711 -25.3686 -25.3661 -25.3582 -25.3582 -25.3562 -25.3553
   -25.3552 -25.3546 -25.3546 -25.3531 -25.3519 -25.3518 -25.3499 -25.3454
   -25.3452 -25.3357 -25.3326 -25.3308 -25.3247 -25.3246 -25.3210 -25.3106
   -25.3105 -25.3066 -25.3066 -25.3030 -25.3029 -25.2961 -25.2805 -25.2775
   -25.2549 -25.2498 -25.2498 -25.2497 -25.2461 -25.2461 -25.2448 -25.2409
   -25.2381 -25.2380 -25.2379 -25.2361 -25.2360 -25.2351 -25.2342 -25.2334
   -25.2316 -25.2284 -25.2250 -25.2250 -25.2229 -25.2229 -25.2223 -25.2173
   -25.2098 -25.2048 -25.2048 -25.2019 -25.1958 -25.1956 -25.1953 -25.1953
   -10.2048 -10.1487  -9.9498  -9.9498  -9.9440  -9.9100  -9.9100  -9.8099
    -9.7763  -9.7763  -9.7092  -9.7092  -9.6476  -9.6130  -9.5258  -9.4881
    -9.4076  -9.3958  -9.2710  -9.2710  -9.2394  -9.2101  -9.2101  -9.2040
    -9.1632  -9.1595  -9.1308  -9.1216  -9.0983  -9.0983  -9.0723  -9.0723
    -9.0575  -9.0461  -9.0109  -9.0094  -8.9873  -8.9873  -8.9865  -8.9865
    -8.9565  -8.9565  -8.9334  -8.9334  -8.8925  -8.8830  -8.8689  -8.8311
    -8.8287  -8.8027  -8.8014  -8.8013  -8.7664  -8.7664  -8.7391  -8.7294
    -8.7050  -8.6998  -8.6991  -8.6991  -8.6790  -8.6790  -8.6474  -8.6304
     2.4379   2.4487   2.4566   2.4566   2.4672   2.4683   2.4684   2.4769
     2.5059   2.5059   2.5222   2.5222   2.5303   2.5745   2.6641   2.6666
     2.6693   2.6713   2.6912   2.7096   2.7594   2.7626   2.7626   2.7774
     2.7774   2.7933   2.8116   2.8116   2.8260   2.8260   2.8369   2.8483
     3.0415   3.0580   3.0664   3.0665   3.1395   3.1926   3.1927   3.2033
     3.4248   3.5143   3.5144   3.5304   3.5304   3.5435   3.6319   3.6378
     3.6546   3.6826   3.6919   3.7103   3.7103   3.7655   3.7766   3.7766
     3.8367   3.8541   3.8640   3.8641   3.8776   3.8777   3.8833   3.9317
     3.9807   4.0399   4.1284   4.2040   4.2822   4.2822   4.3120   4.3174
     4.3174   4.3331   4.3874   4.3956   4.3956   4.4162   4.4349   4.4349
     4.4361   4.4361   4.4457   4.4457   4.4713   4.4968   4.5057   4.5246
     4.5492   4.5492   4.5552   4.5643   4.5710   4.5785   4.6055   4.6120
     4.6146   4.6146   4.6207   4.6226   4.6620   4.6620   4.8190   4.8356
     4.8356   4.9774   5.0350   5.0350   5.0384   5.0384   5.2260   5.2294
     5.2406   5.2406   5.2682   5.2881   5.4388   5.4388   5.4641   5.4781
     5.5290   5.5290   5.5398   5.5398   5.6060   5.6297   5.6380   5.6415
     5.6447   5.7110   5.7243   5.7254   5.7254   5.7854   5.7854   5.7889
     5.9301   5.9422   5.9423   5.9450   5.9714   5.9853   5.9980   5.9980
     6.0066   6.0066   6.0146   6.0146   6.0350   6.0851   6.0851   6.1228
     6.1430   6.1717   6.1717   6.2186   6.2776   6.3495   6.3584   6.3621
     6.4448   6.4515   6.4591   6.4613   6.4614   6.4700   6.4700   6.5016
     6.5411   6.5559   6.5587   6.5830   6.5830   6.6014   6.6014   6.6396
     6.6714   6.6936   6.6936   6.7221   6.7577   6.7577   6.7853   6.7853
     6.7875   6.7875   6.8169   6.8750   6.8963   6.9092   6.9134   6.9273
    10.2232  10.2292  10.2354  10.2472  10.2495  10.2614  10.2663  10.2669
    10.2831  10.3003  10.3004  10.3068  10.3084  10.3084  10.3629  10.3629
    10.3644  10.3918  10.3919  10.4014  10.4669  10.4670  10.4845  10.4846
    10.5185  10.5502  10.5503  10.5597  10.5598  10.5842  10.6040  10.6272
    10.7418  10.7456  10.7456  10.7539  10.7562  10.7625  10.7625  10.7668
    10.7677  10.7732  10.7733  10.7870  10.7870  10.8071  10.8343  10.8366
    10.9166  10.9459  10.9627  10.9840  11.0033  11.0033  11.0468  11.0593
    11.0629  11.0629  11.0956  11.1125  11.1125  11.1126  11.1446  11.1446
    11.2396  11.2396  11.2523  11.2523  11.2660  11.2904  11.2905  11.2984
    11.3108  11.3120  11.3120  11.3132  11.3195

     the Fermi energy is     8.3625 ev

!    total energy              =   -5786.91375057 Ry
     Harris-Foulkes estimate   =   -5786.91375091 Ry
     estimated scf accuracy    <       0.00000058 Ry

     The total energy is the sum of the following terms:

     one-electron contribution =   -2683.43582274 Ry
     hartree contribution      =    1666.52796022 Ry
     xc contribution           =    -915.72960366 Ry
     ewald contribution        =   -3854.27628439 Ry
     smearing contrib. (-TS)   =      -0.00000000 Ry

     total magnetization       =     0.00 Bohr mag/cell
     absolute magnetization    =     0.01 Bohr mag/cell

     convergence has been achieved in  14 iterations

     Writing output data file ./out/espresso.save/

     init_run     :   3262.70s CPU   3269.98s WALL (       1 calls)
     electrons    : 121361.32s CPU 121535.84s WALL (       1 calls)

     Called by init_run:
     wfcinit      :   3213.21s CPU   3218.97s WALL (       1 calls)
     potinit      :      6.17s CPU      6.43s WALL (       1 calls)
     hinit0       :     10.51s CPU     10.60s WALL (       1 calls)

     Called by electrons:
     c_bands      : 111673.19s CPU 111816.23s WALL (      14 calls)
     sum_band     :   9238.00s CPU   9253.96s WALL (      14 calls)
     v_of_rho     :     59.69s CPU     61.50s WALL (      15 calls)
     newd         :    413.38s CPU    428.19s WALL (      15 calls)
     mix_rho      :      7.07s CPU      7.17s WALL (      14 calls)

     Called by c_bands:
     init_us_2    :     95.96s CPU     96.25s WALL (     348 calls)
     cegterg      : 111204.53s CPU 111347.39s WALL (     168 calls)

     Called by sum_band:
     sum_band:bec :      3.48s CPU      3.48s WALL (     168 calls)
     addusdens    :    754.47s CPU    768.38s WALL (      14 calls)

     Called by *egterg:
     h_psi        :  43562.33s CPU  43612.36s WALL (     731 calls)
     s_psi        :  18419.20s CPU  18420.50s WALL (     731 calls)
     g_psi        :     47.38s CPU     47.39s WALL (     551 calls)
     cdiaghg      :   5536.58s CPU   5539.37s WALL (     719 calls)

     Called by h_psi:
     h_psi:calbec :  18381.10s CPU  18382.41s WALL (     731 calls)
     vloc_psi     :   6754.94s CPU   6762.59s WALL (     731 calls)
     add_vuspsi   :  18397.45s CPU  18398.72s WALL (     731 calls)

     General routines
     calbec       :  25384.97s CPU  25386.80s WALL (     899 calls)
     fft          :     17.44s CPU     17.51s WALL (     368 calls)
     ffts         :      1.16s CPU      1.16s WALL (      58 calls)
     fftw         :   6232.57s CPU   6237.82s WALL (  484452 calls)
     interpolate  :      2.60s CPU      2.60s WALL (      30 calls)

     Parallel routines

     PWSCF        :   1d10h37m CPU   1d10h40m WALL


   This run was terminated on:  21: 4:48   1Jun2021            

=------------------------------------------------------------------------------=
   JOB DONE.
=------------------------------------------------------------------------------=
