
     Program PWSCF v.6.4.1 starts on  4Jun2021 at  3:43:53 

     This program is part of the open-source Quantum ESPRESSO suite
     for quantum simulation of materials; please cite
         "P. Giannozzi et al., J. Phys.:Condens. Matter 21 395502 (2009);
         "P. Giannozzi et al., J. Phys.:Condens. Matter 29 465901 (2017);
          URL http://www.quantum-espresso.org", 
     in publications or presentations arising from this work. More details at
     http://www.quantum-espresso.org/quote

     Parallel version (MPI & OpenMP), running on       4 processor cores
     Number of MPI processes:                 1
     Threads/MPI process:                     4

     MPI processes distributed on     1 nodes
     Waiting for input...
     Reading input from standard input

     Current dimensions of program PWSCF are:
     Max number of different atomic species (ntypx) = 10
     Max number of k-points (npk) =  40000
     Max angular momentum in pseudopotentials (lmaxx) =  3
               file O.pbe-rrkjus.UPF: wavefunction(s)  2S renormalized

     Subspace diagonalization in iterative solution of the eigenvalue problem:
     a serial algorithm will be used

     Found symmetry operation: I + (  0.2500  0.2500  0.2500)
     This is a supercell, fractional translations are disabled

     G-vector sticks info
     --------------------
     sticks:   dense  smooth     PW     G-vecs:    dense   smooth      PW
     Sum        3265    2285    641               354483   207445   30399



     bravais-lattice index     =            6
     lattice parameter (alat)  =      14.3241  a.u.
     unit-cell volume          =    7421.2481 (a.u.)^3
     number of atoms/cell      =           96
     number of atomic types    =            2
     number of electrons       =       768.00
     number of Kohn-Sham states=          461
     kinetic-energy cutoff     =      35.0000  Ry
     charge density cutoff     =     200.0000  Ry
     convergence threshold     =      1.0E-06
     mixing beta               =       0.4000
     number of iterations used =            8  plain     mixing
     Exchange-correlation      =  SLA  PW   PBE  PBE ( 1  4  3  4 0 0)

     celldm(1)=  14.324124  celldm(2)=   0.000000  celldm(3)=   2.525066
     celldm(4)=   0.000000  celldm(5)=   0.000000  celldm(6)=   0.000000

     crystal axes: (cart. coord. in units of alat)
               a(1) = (   1.000000   0.000000   0.000000 )  
               a(2) = (   0.000000   1.000000   0.000000 )  
               a(3) = (   0.000000   0.000000   2.525066 )  

     reciprocal axes: (cart. coord. in units 2 pi/alat)
               b(1) = (  1.000000  0.000000  0.000000 )  
               b(2) = (  0.000000  1.000000  0.000000 )  
               b(3) = (  0.000000  0.000000  0.396029 )  


     PseudoPot. # 1 for Ti read from file:
     ./pseudo\Ti.pbe-sp-van_ak.UPF
     MD5 check sum: 2e7572f3128e7cf134dafc4105d62c0f
     Pseudo is Ultrasoft, Zval = 12.0
     Generated by new atomic code, or converted to UPF format
     Using radial grid of  851 points,  6 beta functions with: 
                l(1) =   0
                l(2) =   0
                l(3) =   1
                l(4) =   1
                l(5) =   2
                l(6) =   2
     Q(r) pseudized with  8 coefficients,  rinner =    1.000   1.000   1.000
                                                       1.000   1.000

     PseudoPot. # 2 for O  read from file:
     ./pseudo\O.pbe-rrkjus.UPF
     MD5 check sum: a4b6f5047f549466a921003d899c5518
     Pseudo is Ultrasoft, Zval =  6.0
     Generated by new atomic code, or converted to UPF format
     Using radial grid of 1269 points,  4 beta functions with: 
                l(1) =   0
                l(2) =   0
                l(3) =   1
                l(4) =   1
     Q(r) pseudized with 0 coefficients 


     atomic species   valence    mass     pseudopotential
        Ti            12.00    47.86700     Ti( 1.00)
        O              6.00    15.99940     O ( 1.00)

     Starting magnetic structure 
     atomic species   magnetization
        Ti           0.200
        O            0.000

      8 Sym. Ops. (no inversion) found



   Cartesian axes

     site n.     atom                  positions (alat units)
         1           Ti  tau(   1) = (   0.0000000   0.0000000   0.0000000  )
         2           Ti  tau(   2) = (   0.2500000   0.2500000   0.6312665  )
         3           Ti  tau(   3) = (   0.0000000   0.2500000   0.3156332  )
         4           Ti  tau(   4) = (   0.2500000   0.0000000   0.9468997  )
         5           Ti  tau(   5) = (   0.0000000   0.0000000   1.2625330  )
         6           Ti  tau(   6) = (   0.2500000   0.2500000   1.8937993  )
         7           Ti  tau(   7) = (   0.0000000   0.2500000   1.5781661  )
         8           Ti  tau(   8) = (   0.2500000   0.0000000   2.2094326  )
         9           Ti  tau(   9) = (   0.0000000   0.5000000   0.0000000  )
        10           Ti  tau(  10) = (   0.2500000   0.7500000   0.6312665  )
        11           Ti  tau(  11) = (   0.5000000   0.2500000   0.3156332  )
        12           Ti  tau(  12) = (   0.7500000   0.0000000   0.9468997  )
        13           Ti  tau(  13) = (   0.2500000   0.5000000   0.9468997  )
        14           Ti  tau(  14) = (   0.0000000   0.7500000   0.3156332  )
        15           Ti  tau(  15) = (   0.7500000   0.2500000   0.6312665  )
        16           Ti  tau(  16) = (   0.5000000   0.0000000   0.0000000  )
        17           Ti  tau(  17) = (   0.0000000   0.5000000   1.2625330  )
        18           Ti  tau(  18) = (   0.2500000   0.7500000   1.8937993  )
        19           Ti  tau(  19) = (   0.5000000   0.2500000   1.5781661  )
        20           Ti  tau(  20) = (   0.7500000   0.0000000   2.2094326  )
        21           Ti  tau(  21) = (   0.2500000   0.5000000   2.2094326  )
        22           Ti  tau(  22) = (   0.0000000   0.7500000   1.5781661  )
        23           Ti  tau(  23) = (   0.7500000   0.2500000   1.8937993  )
        24           Ti  tau(  24) = (   0.5000000   0.0000000   1.2625330  )
        25           Ti  tau(  25) = (   0.5000000   0.5000000   0.0000000  )
        26           Ti  tau(  26) = (   0.7500000   0.7500000   0.6312665  )
        27           Ti  tau(  27) = (   0.5000000   0.7500000   0.3156332  )
        28           Ti  tau(  28) = (   0.7500000   0.5000000   0.9468997  )
        29           Ti  tau(  29) = (   0.5000000   0.5000000   1.2625330  )
        30           Ti  tau(  30) = (   0.7500000   0.7500000   1.8937993  )
        31           Ti  tau(  31) = (   0.5000000   0.7500000   1.5781661  )
        32           Ti  tau(  32) = (   0.7500000   0.5000000   2.2094326  )
        33           O   tau(  33) = (   0.0000000   0.0000000   0.2525066  )
        34           O   tau(  34) = (   0.2500000   0.2500000   0.8837731  )
        35           O   tau(  35) = (   0.0000000   0.2500000   0.5681398  )
        36           O   tau(  36) = (   0.2500000   0.0000000   1.1994063  )
        37           O   tau(  37) = (   0.2500000   0.0000000   0.6943931  )
        38           O   tau(  38) = (   0.0000000   0.2500000   0.0631266  )
        39           O   tau(  39) = (   0.2500000   0.2500000   0.3787599  )
        40           O   tau(  40) = (   0.0000000   0.0000000   2.2725592  )
        41           O   tau(  41) = (   0.0000000   0.0000000   1.5150394  )
        42           O   tau(  42) = (   0.2500000   0.2500000   2.1463059  )
        43           O   tau(  43) = (   0.0000000   0.2500000   1.8306727  )
        44           O   tau(  44) = (   0.2500000   0.0000000   2.4619392  )
        45           O   tau(  45) = (   0.2500000   0.0000000   1.9569260  )
        46           O   tau(  46) = (   0.0000000   0.2500000   1.3256595  )
        47           O   tau(  47) = (   0.2500000   0.2500000   1.6412927  )
        48           O   tau(  48) = (   0.0000000   0.0000000   1.0100264  )
        49           O   tau(  49) = (   0.0000000   0.5000000   0.2525066  )
        50           O   tau(  50) = (   0.2500000   0.7500000   0.8837731  )
        51           O   tau(  51) = (   0.5000000   0.2500000   0.5681398  )
        52           O   tau(  52) = (   0.7500000   0.0000000   1.1994063  )
        53           O   tau(  53) = (   0.2500000   0.5000000   0.6943931  )
        54           O   tau(  54) = (   0.0000000   0.7500000   0.0631266  )
        55           O   tau(  55) = (   0.7500000   0.2500000   0.3787599  )
        56           O   tau(  56) = (   0.5000000   0.0000000   2.2725592  )
        57           O   tau(  57) = (   0.0000000   0.5000000   1.5150394  )
        58           O   tau(  58) = (   0.2500000   0.7500000   2.1463059  )
        59           O   tau(  59) = (   0.5000000   0.2500000   1.8306727  )
        60           O   tau(  60) = (   0.7500000   0.0000000   2.4619392  )
        61           O   tau(  61) = (   0.2500000   0.5000000   1.9569260  )
        62           O   tau(  62) = (   0.0000000   0.7500000   1.3256595  )
        63           O   tau(  63) = (   0.7500000   0.2500000   1.6412927  )
        64           O   tau(  64) = (   0.5000000   0.0000000   1.0100264  )
        65           O   tau(  65) = (   0.5000000   0.0000000   0.2525066  )
        66           O   tau(  66) = (   0.7500000   0.2500000   0.8837731  )
        67           O   tau(  67) = (   0.0000000   0.7500000   0.5681398  )
        68           O   tau(  68) = (   0.2500000   0.5000000   1.1994063  )
        69           O   tau(  69) = (   0.7500000   0.0000000   0.6943931  )
        70           O   tau(  70) = (   0.5000000   0.2500000   0.0631266  )
        71           O   tau(  71) = (   0.2500000   0.7500000   0.3787599  )
        72           O   tau(  72) = (   0.0000000   0.5000000   2.2725592  )
        73           O   tau(  73) = (   0.5000000   0.0000000   1.5150394  )
        74           O   tau(  74) = (   0.7500000   0.2500000   2.1463059  )
        75           O   tau(  75) = (   0.0000000   0.7500000   1.8306727  )
        76           O   tau(  76) = (   0.2500000   0.5000000   2.4619392  )
        77           O   tau(  77) = (   0.7500000   0.0000000   1.9569260  )
        78           O   tau(  78) = (   0.5000000   0.2500000   1.3256595  )
        79           O   tau(  79) = (   0.2500000   0.7500000   1.6412927  )
        80           O   tau(  80) = (   0.0000000   0.5000000   1.0100264  )
        81           O   tau(  81) = (   0.5000000   0.5000000   0.2525066  )
        82           O   tau(  82) = (   0.7500000   0.7500000   0.8837731  )
        83           O   tau(  83) = (   0.5000000   0.7500000   0.5681398  )
        84           O   tau(  84) = (   0.7500000   0.5000000   1.1994063  )
        85           O   tau(  85) = (   0.7500000   0.5000000   0.6943931  )
        86           O   tau(  86) = (   0.5000000   0.7500000   0.0631266  )
        87           O   tau(  87) = (   0.7500000   0.7500000   0.3787599  )
        88           O   tau(  88) = (   0.5000000   0.5000000   2.2725592  )
        89           O   tau(  89) = (   0.5000000   0.5000000   1.5150394  )
        90           O   tau(  90) = (   0.7500000   0.7500000   2.1463059  )
        91           O   tau(  91) = (   0.5000000   0.7500000   1.8306727  )
        92           O   tau(  92) = (   0.7500000   0.5000000   2.4619392  )
        93           O   tau(  93) = (   0.7500000   0.5000000   1.9569260  )
        94           O   tau(  94) = (   0.5000000   0.7500000   1.3256595  )
        95           O   tau(  95) = (   0.7500000   0.7500000   1.6412927  )
        96           O   tau(  96) = (   0.5000000   0.5000000   1.0100264  )

     number of k points=     6  gaussian smearing, width (Ry)=  0.0100
                       cart. coord. in units 2pi/alat
        k(    1) = (   0.0000000   0.0000000   0.0000000), wk =   0.1250000
        k(    2) = (   0.0000000   0.0000000  -0.1980146), wk =   0.1250000
        k(    3) = (   0.0000000  -0.5000000   0.0000000), wk =   0.2500000
        k(    4) = (   0.0000000  -0.5000000  -0.1980146), wk =   0.2500000
        k(    5) = (  -0.5000000  -0.5000000   0.0000000), wk =   0.1250000
        k(    6) = (  -0.5000000  -0.5000000  -0.1980146), wk =   0.1250000

     Dense  grid:   354483 G-vectors     FFT dimensions: (  72,  72, 180)

     Smooth grid:   207445 G-vectors     FFT dimensions: (  54,  54, 144)

     Estimated max dynamical RAM per process >       5.40 GB
     Generating pointlists ...
     new r_m :   0.1042 (alat units)  1.4920 (a.u.) for type    1
     new r_m :   0.1042 (alat units)  1.4920 (a.u.) for type    2

     Initial potential from superposition of free atoms

     starting charge  735.99850, renormalised to  768.00000
     Starting wfcs are  576 randomized atomic wfcs

     total cpu time spent up to now is      120.3 secs

     Self-consistent Calculation

     iteration #  1     ecut=    35.00 Ry     beta= 0.40
     Davidson diagonalization with overlap
     ethr =  1.00E-02,  avg # of iterations =  3.0

     total cpu time spent up to now is      344.9 secs

     total energy              =   -5778.38833067 Ry
     Harris-Foulkes estimate   =   -5788.84341108 Ry
     estimated scf accuracy    <      23.87230770 Ry

     total magnetization       =     0.00 Bohr mag/cell
     absolute magnetization    =     9.71 Bohr mag/cell

     iteration #  2     ecut=    35.00 Ry     beta= 0.40
     Davidson diagonalization with overlap
     ethr =  3.11E-03,  avg # of iterations =  4.0

     total cpu time spent up to now is      640.3 secs

     total energy              =   -5782.80873966 Ry
     Harris-Foulkes estimate   =   -5788.29145283 Ry
     estimated scf accuracy    <      17.56656064 Ry

     total magnetization       =     0.56 Bohr mag/cell
     absolute magnetization    =    21.59 Bohr mag/cell

     iteration #  3     ecut=    35.00 Ry     beta= 0.40
     Davidson diagonalization with overlap
     ethr =  2.29E-03,  avg # of iterations =  3.3

     total cpu time spent up to now is      857.0 secs

     total energy              =   -5786.52999995 Ry
     Harris-Foulkes estimate   =   -5786.26812183 Ry
     estimated scf accuracy    <       1.42940292 Ry

     total magnetization       =    -0.00 Bohr mag/cell
     absolute magnetization    =     7.82 Bohr mag/cell

     iteration #  4     ecut=    35.00 Ry     beta= 0.40
     Davidson diagonalization with overlap
     ethr =  1.86E-04,  avg # of iterations =  3.3

     total cpu time spent up to now is     1111.4 secs

     total energy              =   -5786.89219511 Ry
     Harris-Foulkes estimate   =   -5786.90645232 Ry
     estimated scf accuracy    <       0.15020898 Ry

     total magnetization       =     0.00 Bohr mag/cell
     absolute magnetization    =     2.41 Bohr mag/cell

     iteration #  5     ecut=    35.00 Ry     beta= 0.40
     Davidson diagonalization with overlap
     ethr =  1.96E-05,  avg # of iterations =  2.3

     total cpu time spent up to now is     1315.2 secs

     total energy              =   -5786.88336261 Ry
     Harris-Foulkes estimate   =   -5786.90887040 Ry
     estimated scf accuracy    <       0.06086511 Ry

     total magnetization       =     0.00 Bohr mag/cell
     absolute magnetization    =     2.18 Bohr mag/cell

     iteration #  6     ecut=    35.00 Ry     beta= 0.40
     Davidson diagonalization with overlap
     ethr =  7.93E-06,  avg # of iterations =  6.9

     total cpu time spent up to now is     1657.2 secs

     total energy              =   -5786.90524885 Ry
     Harris-Foulkes estimate   =   -5786.90914444 Ry
     estimated scf accuracy    <       0.02552891 Ry

     total magnetization       =     0.00 Bohr mag/cell
     absolute magnetization    =     1.12 Bohr mag/cell

     iteration #  7     ecut=    35.00 Ry     beta= 0.40
     Davidson diagonalization with overlap
     ethr =  3.32E-06,  avg # of iterations =  2.2

     total cpu time spent up to now is     1832.2 secs

     total energy              =   -5786.90472864 Ry
     Harris-Foulkes estimate   =   -5786.90606539 Ry
     estimated scf accuracy    <       0.01039590 Ry

     total magnetization       =    -0.00 Bohr mag/cell
     absolute magnetization    =     0.94 Bohr mag/cell

     iteration #  8     ecut=    35.00 Ry     beta= 0.40
     Davidson diagonalization with overlap
     ethr =  1.35E-06,  avg # of iterations =  5.7

     total cpu time spent up to now is     2066.1 secs

     total energy              =   -5786.90563288 Ry
     Harris-Foulkes estimate   =   -5786.90581054 Ry
     estimated scf accuracy    <       0.00176025 Ry

     total magnetization       =     0.00 Bohr mag/cell
     absolute magnetization    =     0.69 Bohr mag/cell

     iteration #  9     ecut=    35.00 Ry     beta= 0.40
     Davidson diagonalization with overlap
     ethr =  2.29E-07,  avg # of iterations =  3.5

     total cpu time spent up to now is     2978.6 secs

     total energy              =   -5786.90632066 Ry
     Harris-Foulkes estimate   =   -5786.90628723 Ry
     estimated scf accuracy    <       0.00030474 Ry

     total magnetization       =    -0.00 Bohr mag/cell
     absolute magnetization    =     0.17 Bohr mag/cell

     iteration # 10     ecut=    35.00 Ry     beta= 0.40
     Davidson diagonalization with overlap
     ethr =  3.97E-08,  avg # of iterations =  3.2

     total cpu time spent up to now is     5472.6 secs

     total energy              =   -5786.90619485 Ry
     Harris-Foulkes estimate   =   -5786.90639981 Ry
     estimated scf accuracy    <       0.00053448 Ry

     total magnetization       =    -0.00 Bohr mag/cell
     absolute magnetization    =     0.04 Bohr mag/cell

     iteration # 11     ecut=    35.00 Ry     beta= 0.40
     Davidson diagonalization with overlap
     ethr =  3.97E-08,  avg # of iterations =  3.5

     total cpu time spent up to now is     7964.3 secs

     total energy              =   -5786.90629370 Ry
     Harris-Foulkes estimate   =   -5786.90629378 Ry
     estimated scf accuracy    <       0.00003418 Ry

     total magnetization       =     0.00 Bohr mag/cell
     absolute magnetization    =     0.13 Bohr mag/cell

     iteration # 12     ecut=    35.00 Ry     beta= 0.40
     Davidson diagonalization with overlap
     ethr =  4.45E-09,  avg # of iterations =  4.8

     total cpu time spent up to now is    10661.3 secs

     total energy              =   -5786.90631242 Ry
     Harris-Foulkes estimate   =   -5786.90631392 Ry
     estimated scf accuracy    <       0.00000484 Ry

     total magnetization       =    -0.00 Bohr mag/cell
     absolute magnetization    =     0.02 Bohr mag/cell

     iteration # 13     ecut=    35.00 Ry     beta= 0.40
     Davidson diagonalization with overlap
     ethr =  6.30E-10,  avg # of iterations =  3.6

     total cpu time spent up to now is    13477.0 secs

     total energy              =   -5786.90631348 Ry
     Harris-Foulkes estimate   =   -5786.90631388 Ry
     estimated scf accuracy    <       0.00000152 Ry

     total magnetization       =     0.00 Bohr mag/cell
     absolute magnetization    =     0.01 Bohr mag/cell

     iteration # 14     ecut=    35.00 Ry     beta= 0.40
     Davidson diagonalization with overlap
     ethr =  1.98E-10,  avg # of iterations =  3.5

     Magnetic moment per site:
     atom:    1    charge:    8.4014    magn:    0.0000    constr:    0.0000
     atom:    2    charge:    8.4014    magn:    0.0000    constr:    0.0000
     atom:    3    charge:    8.4009    magn:    0.0000    constr:    0.0000
     atom:    4    charge:    8.4010    magn:    0.0000    constr:    0.0000
     atom:    5    charge:    8.4014    magn:    0.0000    constr:    0.0000
     atom:    6    charge:    8.4014    magn:    0.0000    constr:    0.0000
     atom:    7    charge:    8.4010    magn:    0.0000    constr:    0.0000
     atom:    8    charge:    8.4009    magn:    0.0000    constr:    0.0000
     atom:    9    charge:    8.4014    magn:    0.0000    constr:    0.0000
     atom:   10    charge:    8.4014    magn:    0.0000    constr:    0.0000
     atom:   11    charge:    8.4010    magn:    0.0000    constr:    0.0000
     atom:   12    charge:    8.4010    magn:    0.0000    constr:    0.0000
     atom:   13    charge:    8.4010    magn:    0.0000    constr:    0.0000
     atom:   14    charge:    8.4009    magn:    0.0000    constr:    0.0000
     atom:   15    charge:    8.4014    magn:    0.0000    constr:    0.0000
     atom:   16    charge:    8.4014    magn:    0.0000    constr:    0.0000
     atom:   17    charge:    8.4014    magn:    0.0000    constr:    0.0000
     atom:   18    charge:    8.4014    magn:    0.0000    constr:    0.0000
     atom:   19    charge:    8.4010    magn:    0.0000    constr:    0.0000
     atom:   20    charge:    8.4009    magn:    0.0000    constr:    0.0000
     atom:   21    charge:    8.4010    magn:    0.0000    constr:    0.0000
     atom:   22    charge:    8.4010    magn:    0.0000    constr:    0.0000
     atom:   23    charge:    8.4014    magn:    0.0000    constr:    0.0000
     atom:   24    charge:    8.4014    magn:    0.0000    constr:    0.0000
     atom:   25    charge:    8.4015    magn:    0.0000    constr:    0.0000
     atom:   26    charge:    8.4014    magn:    0.0000    constr:    0.0000
     atom:   27    charge:    8.4010    magn:    0.0000    constr:    0.0000
     atom:   28    charge:    8.4010    magn:    0.0000    constr:    0.0000
     atom:   29    charge:    8.4014    magn:    0.0000    constr:    0.0000
     atom:   30    charge:    8.4014    magn:    0.0000    constr:    0.0000
     atom:   31    charge:    8.4010    magn:    0.0000    constr:    0.0000
     atom:   32    charge:    8.4010    magn:    0.0000    constr:    0.0000
     atom:   33    charge:    5.3654    magn:   -0.0000    constr:    0.0000
     atom:   34    charge:    5.3654    magn:   -0.0000    constr:    0.0000
     atom:   35    charge:    5.3650    magn:   -0.0000    constr:    0.0000
     atom:   36    charge:    5.3650    magn:   -0.0000    constr:    0.0000
     atom:   37    charge:    5.3650    magn:   -0.0000    constr:    0.0000
     atom:   38    charge:    5.3650    magn:   -0.0000    constr:    0.0000
     atom:   39    charge:    5.3654    magn:   -0.0000    constr:    0.0000
     atom:   40    charge:    5.3654    magn:   -0.0000    constr:    0.0000
     atom:   41    charge:    5.3654    magn:   -0.0000    constr:    0.0000
     atom:   42    charge:    5.3654    magn:   -0.0000    constr:    0.0000
     atom:   43    charge:    5.3650    magn:   -0.0000    constr:    0.0000
     atom:   44    charge:    5.3650    magn:   -0.0000    constr:    0.0000
     atom:   45    charge:    5.3650    magn:   -0.0000    constr:    0.0000
     atom:   46    charge:    5.3650    magn:   -0.0000    constr:    0.0000
     atom:   47    charge:    5.3654    magn:   -0.0000    constr:    0.0000
     atom:   48    charge:    5.3654    magn:   -0.0000    constr:    0.0000
     atom:   49    charge:    5.3654    magn:   -0.0000    constr:    0.0000
     atom:   50    charge:    5.3654    magn:   -0.0000    constr:    0.0000
     atom:   51    charge:    5.3650    magn:   -0.0000    constr:    0.0000
     atom:   52    charge:    5.3650    magn:   -0.0000    constr:    0.0000
     atom:   53    charge:    5.3650    magn:   -0.0000    constr:    0.0000
     atom:   54    charge:    5.3650    magn:   -0.0000    constr:    0.0000
     atom:   55    charge:    5.3654    magn:   -0.0000    constr:    0.0000
     atom:   56    charge:    5.3654    magn:   -0.0000    constr:    0.0000
     atom:   57    charge:    5.3654    magn:   -0.0000    constr:    0.0000
     atom:   58    charge:    5.3654    magn:   -0.0000    constr:    0.0000
     atom:   59    charge:    5.3650    magn:   -0.0000    constr:    0.0000
     atom:   60    charge:    5.3650    magn:   -0.0000    constr:    0.0000
     atom:   61    charge:    5.3650    magn:   -0.0000    constr:    0.0000
     atom:   62    charge:    5.3650    magn:   -0.0000    constr:    0.0000
     atom:   63    charge:    5.3654    magn:   -0.0000    constr:    0.0000
     atom:   64    charge:    5.3654    magn:   -0.0000    constr:    0.0000
     atom:   65    charge:    5.3654    magn:   -0.0000    constr:    0.0000
     atom:   66    charge:    5.3654    magn:   -0.0000    constr:    0.0000
     atom:   67    charge:    5.3650    magn:   -0.0000    constr:    0.0000
     atom:   68    charge:    5.3650    magn:   -0.0000    constr:    0.0000
     atom:   69    charge:    5.3650    magn:   -0.0000    constr:    0.0000
     atom:   70    charge:    5.3650    magn:   -0.0000    constr:    0.0000
     atom:   71    charge:    5.3654    magn:   -0.0000    constr:    0.0000
     atom:   72    charge:    5.3654    magn:   -0.0000    constr:    0.0000
     atom:   73    charge:    5.3654    magn:   -0.0000    constr:    0.0000
     atom:   74    charge:    5.3654    magn:   -0.0000    constr:    0.0000
     atom:   75    charge:    5.3650    magn:   -0.0000    constr:    0.0000
     atom:   76    charge:    5.3650    magn:   -0.0000    constr:    0.0000
     atom:   77    charge:    5.3650    magn:   -0.0000    constr:    0.0000
     atom:   78    charge:    5.3650    magn:   -0.0000    constr:    0.0000
     atom:   79    charge:    5.3654    magn:   -0.0000    constr:    0.0000
     atom:   80    charge:    5.3654    magn:   -0.0000    constr:    0.0000
     atom:   81    charge:    5.3654    magn:   -0.0000    constr:    0.0000
     atom:   82    charge:    5.3654    magn:   -0.0000    constr:    0.0000
     atom:   83    charge:    5.3650    magn:   -0.0000    constr:    0.0000
     atom:   84    charge:    5.3650    magn:   -0.0000    constr:    0.0000
     atom:   85    charge:    5.3650    magn:   -0.0000    constr:    0.0000
     atom:   86    charge:    5.3650    magn:   -0.0000    constr:    0.0000
     atom:   87    charge:    5.3654    magn:   -0.0000    constr:    0.0000
     atom:   88    charge:    5.3654    magn:   -0.0000    constr:    0.0000
     atom:   89    charge:    5.3654    magn:   -0.0000    constr:    0.0000
     atom:   90    charge:    5.3654    magn:   -0.0000    constr:    0.0000
     atom:   91    charge:    5.3650    magn:   -0.0000    constr:    0.0000
     atom:   92    charge:    5.3650    magn:   -0.0000    constr:    0.0000
     atom:   93    charge:    5.3650    magn:   -0.0000    constr:    0.0000
     atom:   94    charge:    5.3650    magn:   -0.0000    constr:    0.0000
     atom:   95    charge:    5.3654    magn:   -0.0000    constr:    0.0000
     atom:   96    charge:    5.3654    magn:   -0.0000    constr:    0.0000

     total cpu time spent up to now is    16348.0 secs

     End of self-consistent calculation

 ------ SPIN UP ------------


          k = 0.0000 0.0000 0.0000 ( 25997 PWs)   bands (ev):

   -49.0947 -49.0859 -49.0858 -49.0776 -49.0775 -49.0774 -49.0774 -49.0773
   -49.0773 -49.0773 -49.0773 -49.0647 -49.0641 -49.0605 -49.0605 -49.0603
   -49.0603 -49.0599 -49.0597 -49.0597 -49.0597 -49.0472 -49.0471 -49.0470
   -49.0470 -49.0470 -49.0469 -49.0469 -49.0469 -49.0429 -49.0428 -49.0339
   -25.6285 -25.5866 -25.5866 -25.5866 -25.5866 -25.5806 -25.5806 -25.5806
   -25.5805 -25.5678 -25.5678 -25.5567 -25.5567 -25.5565 -25.5565 -25.5563
   -25.5562 -25.5561 -25.5560 -25.4725 -25.4725 -25.4725 -25.4725 -25.4558
   -25.4558 -25.4558 -25.4557 -25.4215 -25.4214 -25.3740 -25.3740 -25.3737
   -25.3737 -25.3733 -25.3733 -25.3730 -25.3730 -25.3566 -25.3566 -25.3463
   -25.3463 -25.3462 -25.3462 -25.3417 -25.3417 -25.3416 -25.3416 -25.3415
   -25.3415 -25.3415 -25.3415 -25.3331 -25.3331 -25.3195 -25.3195 -25.3195
   -25.3195 -25.3001 -25.3001 -25.3001 -25.3001 -25.2679 -25.2678 -25.2604
   -25.2604 -25.2461 -25.2461 -25.2460 -25.2460 -25.2452 -25.2452 -25.2451
   -25.2451 -25.2446 -25.2446 -25.2446 -25.2445 -25.2358 -25.2358 -25.2222
   -25.2222 -25.2222 -25.2222 -25.2222 -25.2221 -25.2220 -25.2219 -25.2219
   -25.2219 -25.2217 -25.2217 -25.2123 -25.2123 -25.2123 -25.2123 -25.2049
   -10.4615 -10.2763 -10.2763  -9.9120  -9.9119  -9.9119  -9.9119  -9.9107
    -9.9107  -9.9107  -9.9107  -9.8324  -9.8323  -9.3979  -9.3979  -9.2646
    -9.2230  -9.2060  -9.2060  -9.1431  -9.1430  -9.1429  -9.1429  -9.1415
    -9.1415  -9.1414  -9.1414  -9.0909  -9.0909  -9.0909  -9.0909  -9.0837
    -9.0836  -9.0836  -9.0836  -9.0394  -9.0392  -8.8616  -8.8616  -8.8616
    -8.8616  -8.8490  -8.8490  -8.8490  -8.8490  -8.8458  -8.8457  -8.8457
    -8.8457  -8.8324  -8.8323  -8.8273  -8.8273  -8.8273  -8.8273  -8.7335
    -8.6792  -8.6791  -8.6791  -8.6791  -8.6776  -8.6776  -8.6775  -8.6775
     2.7884   2.7884   2.7884   2.7884   2.8021   2.8021   2.8021   2.8021
     2.8556   2.8556   2.8561   2.8561   2.9886   3.0033   3.0034   3.0038
     3.0038   3.0180   3.0180   3.0496   3.0497   3.0497   3.0497   3.0517
     3.0517   3.0522   3.0523   3.0817   3.0817   3.1049   3.1050   3.1050
     3.1050   3.1063   3.1064   3.1064   3.1064   3.1155   3.1156   3.1156
     3.1156   3.1171   3.1171   3.1171   3.1171   3.1490   3.1491   3.1495
     3.1496   3.1915   3.1915   3.3610   3.3610   3.3611   3.3611   3.4027
     3.4028   3.4028   3.4028   3.4175   3.4182   3.5765   3.5765   3.5769
     3.5769   3.6066   3.6066   3.6122   3.6122   3.6125   3.6126   3.9151
     3.9151   3.9151   3.9151   3.9494   4.1883   4.1883   4.1883   4.1883
     4.3071   4.3071   4.3079   4.3079   4.5600   4.5600   4.5609   4.5609
     4.5663   4.5663   4.5664   4.5664   4.9762   5.0136   5.0136   5.0139
     5.0140   5.0140   5.0140   5.0145   5.0145   5.0498   5.0498   5.0498
     5.0499   5.1020   5.1021   5.1021   5.1021   5.1255   5.1255   5.1255
     5.1255   5.1864   5.1864   5.1864   5.1864   5.2652   5.2652   5.2652
     5.2652   5.3615   5.3615   5.3615   5.3615   5.3625   5.3625   5.3635
     5.3635   5.4992   5.4992   5.8300   5.8311   5.8597   5.8597   5.8610
     5.8610   6.0185   6.0185   6.0185   6.0185   6.0890   6.0890   6.1067
     6.1067   6.1372   6.1372   6.1372   6.1372   6.2571   6.2571   6.2571
     6.2571   6.2991   6.2991   6.2992   6.2992   6.3553   6.3554   6.3554
     6.3554   6.4123   6.5552   6.5552   6.5552   6.5552   6.5634   6.5634
     6.5698   6.5698   6.5698   6.5698   6.5716   6.5716   6.5716   6.5716
     6.6526   6.6526   6.6531   6.6532   6.7629   6.7629   6.9426   6.9427
     6.9434   6.9435   7.0324   7.0324   7.0325   7.0325   7.1586   7.1587
     9.4037   9.5058   9.5058   9.7606   9.7611  10.0275  10.0276  10.1408
    10.4355  10.4355  10.4355  10.4355  10.5044  10.5044  10.5045  10.5045
    10.6231  10.6231  10.6231  10.6231  10.6505  10.6505  10.6507  10.6507
    10.6548  10.6548  10.6548  10.6548  10.7755  10.7755  10.7756  10.7756
    10.8313  10.8313  10.8313  10.8313  10.8589  10.8589  10.8589  10.8589
    10.8934  10.8934  10.8934  10.8934  10.9015  10.9015  10.9015  10.9015
    10.9624  10.9624  10.9624  10.9624  11.0153  11.0153  11.0155  11.0155
    11.1146  11.1146  11.2292  11.2292  11.2293  11.2293  11.5084  11.5084
    11.6001  11.6002  11.6161  11.6161  11.6161  11.6161  11.7202  11.7202
    11.7202  11.7202  11.8903  11.8903  11.8903

          k = 0.0000 0.0000-0.1980 ( 25972 PWs)   bands (ev):

   -49.0925 -49.0924 -49.0776 -49.0775 -49.0774 -49.0774 -49.0773 -49.0773
   -49.0773 -49.0773 -49.0760 -49.0760 -49.0605 -49.0605 -49.0603 -49.0603
   -49.0599 -49.0597 -49.0597 -49.0597 -49.0527 -49.0527 -49.0472 -49.0471
   -49.0470 -49.0470 -49.0470 -49.0469 -49.0469 -49.0469 -49.0363 -49.0361
   -25.6135 -25.6134 -25.5841 -25.5840 -25.5840 -25.5839 -25.5839 -25.5839
   -25.5839 -25.5838 -25.5563 -25.5561 -25.5561 -25.5561 -25.5561 -25.5560
   -25.5559 -25.5559 -25.4997 -25.4997 -25.4645 -25.4645 -25.4645 -25.4645
   -25.4645 -25.4645 -25.4644 -25.4644 -25.3736 -25.3735 -25.3735 -25.3734
   -25.3733 -25.3733 -25.3732 -25.3732 -25.3534 -25.3534 -25.3532 -25.3532
   -25.3418 -25.3417 -25.3416 -25.3416 -25.3416 -25.3415 -25.3415 -25.3415
   -25.3384 -25.3384 -25.3380 -25.3380 -25.3379 -25.3379 -25.3100 -25.3099
   -25.3099 -25.3099 -25.3099 -25.3099 -25.3098 -25.3098 -25.2563 -25.2563
   -25.2562 -25.2562 -25.2446 -25.2446 -25.2445 -25.2445 -25.2444 -25.2444
   -25.2444 -25.2444 -25.2381 -25.2381 -25.2380 -25.2380 -25.2223 -25.2222
   -25.2221 -25.2220 -25.2220 -25.2220 -25.2219 -25.2219 -25.2218 -25.2217
   -25.2169 -25.2168 -25.2168 -25.2168 -25.2167 -25.2167 -25.2167 -25.2167
   -10.4135 -10.4133 -10.0718 -10.0718  -9.9114  -9.9113  -9.9113  -9.9112
    -9.9112  -9.9112  -9.9111  -9.9111  -9.5955  -9.5955  -9.2682  -9.2681
    -9.2499  -9.2498  -9.1430  -9.1429  -9.1429  -9.1429  -9.1415  -9.1414
    -9.1413  -9.1413  -9.1342  -9.1341  -9.0874  -9.0874  -9.0874  -9.0873
    -9.0873  -9.0873  -9.0873  -9.0872  -8.9326  -8.9326  -8.8581  -8.8581
    -8.8581  -8.8581  -8.8580  -8.8580  -8.8580  -8.8580  -8.8337  -8.8337
    -8.8337  -8.8337  -8.8337  -8.8336  -8.8336  -8.8336  -8.7601  -8.7600
    -8.6791  -8.6790  -8.6790  -8.6790  -8.6775  -8.6775  -8.6774  -8.6774
     2.7951   2.7951   2.7951   2.7951   2.7952   2.7952   2.7952   2.7952
     2.9073   2.9073   2.9074   2.9074   2.9078   2.9078   2.9079   2.9079
     3.0269   3.0269   3.0270   3.0270   3.0477   3.0478   3.0725   3.0725
     3.0726   3.0726   3.1055   3.1056   3.1056   3.1057   3.1058   3.1058
     3.1058   3.1058   3.1163   3.1164   3.1164   3.1164   3.1164   3.1164
     3.1164   3.1164   3.1219   3.1219   3.1220   3.1220   3.1223   3.1224
     3.1225   3.1225   3.3347   3.3347   3.3795   3.3795   3.3796   3.3796
     3.3796   3.3797   3.3797   3.3797   3.4812   3.4812   3.5958   3.5958
     3.5959   3.5959   3.5961   3.5962   3.5962   3.5963   3.8122   3.8123
     4.0270   4.0270   4.0270   4.0270   4.0271   4.0271   4.0271   4.0271
     4.4132   4.4132   4.4134   4.4134   4.4141   4.4142   4.4142   4.4142
     4.8040   4.8040   4.8040   4.8041   4.8041   4.8041   4.8041   4.8041
     5.0137   5.0137   5.0138   5.0138   5.0142   5.0142   5.0143   5.0143
     5.0775   5.0776   5.0776   5.0776   5.0777   5.0777   5.0778   5.0778
     5.1684   5.1686   5.2357   5.2357   5.2358   5.2358   5.2359   5.2359
     5.2359   5.2359   5.6086   5.6086   5.6087   5.6087   5.6096   5.6097
     5.6097   5.6098   5.6861   5.6861   5.6861   5.6861   5.6861   5.6861
     5.6861   5.6861   5.7297   5.7297   5.9241   5.9241   6.1335   6.1335
     6.1336   6.1336   6.2725   6.2725   6.2726   6.2726   6.2727   6.2727
     6.2727   6.2727   6.3173   6.3174   6.4308   6.4308   6.4309   6.4309
     6.4617   6.4617   6.4618   6.4618   6.4618   6.4618   6.4619   6.4619
     6.5706   6.5706   6.5707   6.5707   6.5708   6.5708   6.5708   6.5708
     6.8193   6.8193   6.8195   6.8195   6.8199   6.8201   6.8201   6.8202
     6.8850   6.8850   6.8850   6.8850   7.1269   7.1269   7.1271   7.1271
     9.4294   9.4295   9.6222   9.6223   9.9041   9.9041  10.1106  10.1107
    10.4917  10.4917  10.4917  10.4917  10.4918  10.4918  10.4918  10.4918
    10.5672  10.5672  10.5673  10.5673  10.5673  10.5673  10.5674  10.5675
    10.7893  10.7894  10.7894  10.7894  10.7895  10.7895  10.7895  10.7895
    10.8101  10.8101  10.8101  10.8101  10.8102  10.8102  10.8102  10.8102
    10.9244  10.9245  10.9245  10.9245  10.9246  10.9246  10.9246  10.9246
    10.9696  10.9696  10.9697  10.9697  10.9697  10.9698  10.9698  10.9699
    11.1441  11.1441  11.1442  11.1442  11.3674  11.3674  11.3675  11.3675
    11.6656  11.6656  11.6656  11.6656  11.6657  11.6657  11.6657  11.6657
    11.7423  11.7423  11.7423  11.7423  11.9275

          k = 0.0000-0.5000 0.0000 ( 25942 PWs)   bands (ev):

   -49.0892 -49.0892 -49.0820 -49.0819 -49.0819 -49.0819 -49.0720 -49.0720
   -49.0719 -49.0719 -49.0719 -49.0718 -49.0718 -49.0718 -49.0678 -49.0678
   -49.0589 -49.0588 -49.0505 -49.0505 -49.0504 -49.0504 -49.0504 -49.0503
   -49.0503 -49.0503 -49.0447 -49.0447 -49.0446 -49.0446 -49.0373 -49.0373
   -25.6197 -25.6197 -25.5812 -25.5811 -25.5811 -25.5811 -25.5770 -25.5770
   -25.5770 -25.5770 -25.5736 -25.5735 -25.5735 -25.5735 -25.4993 -25.4993
   -25.4993 -25.4993 -25.4992 -25.4992 -25.4921 -25.4921 -25.4921 -25.4921
   -25.4400 -25.4400 -25.4171 -25.4171 -25.4171 -25.4170 -25.3949 -25.3948
   -25.3715 -25.3715 -25.3714 -25.3714 -25.3666 -25.3666 -25.3665 -25.3665
   -25.3518 -25.3517 -25.3441 -25.3441 -25.3441 -25.3441 -25.3425 -25.3425
   -25.3425 -25.3425 -25.3347 -25.3347 -25.3314 -25.3314 -25.3314 -25.3314
   -25.3304 -25.3304 -25.2883 -25.2883 -25.2820 -25.2820 -25.2819 -25.2819
   -25.2550 -25.2550 -25.2456 -25.2456 -25.2455 -25.2455 -25.2427 -25.2427
   -25.2426 -25.2426 -25.2393 -25.2393 -25.2392 -25.2392 -25.2373 -25.2373
   -25.2352 -25.2352 -25.2305 -25.2305 -25.2305 -25.2304 -25.2130 -25.2130
   -25.2130 -25.2130 -25.2076 -25.2076 -25.2076 -25.2075 -25.1952 -25.1952
   -10.2266 -10.2266 -10.0759 -10.0759 -10.0759 -10.0759  -9.8235  -9.8235
    -9.5998  -9.5998  -9.5998  -9.5997  -9.5980  -9.5980  -9.5979  -9.5979
    -9.4959  -9.4958  -9.2550  -9.2549  -9.2549  -9.2549  -9.1603  -9.1603
    -9.1058  -9.1058  -9.1058  -9.1058  -9.1033  -9.1032  -9.0497  -9.0497
    -9.0497  -9.0497  -9.0413  -9.0413  -9.0413  -9.0413  -9.0223  -9.0223
    -8.8903  -8.8903  -8.8007  -8.8007  -8.8007  -8.8007  -8.7883  -8.7883
    -8.7883  -8.7883  -8.7722  -8.7722  -8.7722  -8.7722  -8.7374  -8.7373
    -8.7373  -8.7373  -8.7316  -8.7316  -8.7316  -8.7316  -8.6954  -8.6954
     2.5038   2.5038   2.5422   2.5422   2.5422   2.5422   2.5733   2.5733
     2.5733   2.5733   2.5840   2.5840   2.5840   2.5840   2.5993   2.5993
     2.8203   2.8203   2.8203   2.8203   2.8853   2.8853   2.8853   2.8853
     3.0127   3.0128   3.0502   3.0502   3.0772   3.0772   3.0772   3.0772
     3.1041   3.1041   3.1199   3.1199   3.1199   3.1199   3.1435   3.1435
     3.1435   3.1435   3.2787   3.2787   3.2787   3.2787   3.4340   3.4340
     3.4340   3.4340   3.4772   3.4772   3.5585   3.5585   3.5585   3.5585
     3.6998   3.6999   3.6999   3.6999   3.7196   3.7196   3.7332   3.7332
     3.7332   3.7332   3.8914   3.8914   4.1645   4.1646   4.1646   4.1646
     4.2016   4.2016   4.2017   4.2017   4.2451   4.2451   4.2451   4.2451
     4.5706   4.5706   4.6707   4.6707   4.6707   4.6707   4.7322   4.7322
     4.7322   4.7322   4.7666   4.7666   4.7667   4.7667   4.8772   4.8772
     4.9379   4.9379   4.9593   4.9593   4.9594   4.9594   4.9877   4.9877
     4.9877   4.9877   4.9896   4.9896   5.0923   5.0923   5.1096   5.1096
     5.1631   5.1631   5.1632   5.1632   5.2012   5.2012   5.2012   5.2012
     5.2439   5.2439   5.2439   5.2439   5.5020   5.5020   5.5020   5.5020
     5.5802   5.5802   5.5942   5.5942   5.5943   5.5943   5.7870   5.7870
     5.8673   5.8674   5.8674   5.8674   5.9061   5.9061   5.9562   5.9562
     6.1078   6.1078   6.1078   6.1078   6.2664   6.2664   6.2664   6.2664
     6.3647   6.3648   6.4904   6.4904   6.5025   6.5025   6.5025   6.5025
     6.5214   6.5214   6.5214   6.5214   6.5438   6.5439   6.5557   6.5557
     6.6040   6.6040   6.6040   6.6040   6.6272   6.6272   6.6272   6.6272
     6.6580   6.6580   6.6581   6.6581   6.6954   6.6955   6.6955   6.6955
     6.7389   6.7389   6.7681   6.7681   6.8299   6.8299   6.8299   6.8300
    10.0823  10.0823  10.1093  10.1093  10.1094  10.1094  10.3151  10.3151
    10.3304  10.3304  10.3585  10.3585  10.3585  10.3585  10.3989  10.3989
    10.3989  10.3989  10.5379  10.5379  10.5379  10.5379  10.5521  10.5521
    10.5521  10.5522  10.5746  10.5746  10.5819  10.5819  10.5819  10.5820
    10.7125  10.7125  10.7569  10.7569  10.7569  10.7569  10.7811  10.7811
    10.7812  10.7812  10.7957  10.7958  10.8228  10.8229  10.8229  10.8229
    10.8536  10.8536  10.9387  10.9387  10.9388  10.9388  11.0299  11.0299
    11.0879  11.0880  11.0880  11.0880  11.1011  11.1011  11.1011  11.1011
    11.1296  11.1296  11.2581  11.2581  11.2581  11.2582  11.5547  11.5548
    11.6268  11.6268  11.6268  11.6268  11.6797

          k = 0.0000-0.5000-0.1980 ( 25940 PWs)   bands (ev):

   -49.0874 -49.0874 -49.0873 -49.0872 -49.0741 -49.0741 -49.0740 -49.0740
   -49.0720 -49.0720 -49.0719 -49.0719 -49.0719 -49.0718 -49.0718 -49.0718
   -49.0526 -49.0526 -49.0525 -49.0525 -49.0505 -49.0505 -49.0504 -49.0504
   -49.0504 -49.0503 -49.0503 -49.0503 -49.0393 -49.0393 -49.0392 -49.0391
   -25.6080 -25.6080 -25.6079 -25.6078 -25.5791 -25.5791 -25.5791 -25.5790
   -25.5790 -25.5790 -25.5790 -25.5789 -25.5269 -25.5268 -25.5268 -25.5268
   -25.4957 -25.4956 -25.4956 -25.4956 -25.4955 -25.4955 -25.4955 -25.4955
   -25.4318 -25.4318 -25.4318 -25.4318 -25.4023 -25.4023 -25.4022 -25.4022
   -25.3695 -25.3694 -25.3694 -25.3693 -25.3693 -25.3693 -25.3693 -25.3692
   -25.3499 -25.3499 -25.3498 -25.3498 -25.3379 -25.3379 -25.3378 -25.3378
   -25.3365 -25.3364 -25.3364 -25.3364 -25.3364 -25.3364 -25.3363 -25.3363
   -25.3090 -25.3090 -25.3089 -25.3089 -25.2837 -25.2836 -25.2836 -25.2835
   -25.2520 -25.2520 -25.2519 -25.2519 -25.2413 -25.2413 -25.2412 -25.2412
   -25.2411 -25.2411 -25.2411 -25.2411 -25.2399 -25.2399 -25.2398 -25.2397
   -25.2370 -25.2370 -25.2369 -25.2368 -25.2102 -25.2102 -25.2101 -25.2101
   -25.2101 -25.2100 -25.2100 -25.2100 -25.2066 -25.2066 -25.2065 -25.2065
   -10.1869 -10.1869 -10.1868 -10.1867  -9.9232  -9.9232  -9.9231  -9.9231
    -9.5990  -9.5990  -9.5989  -9.5988  -9.5988  -9.5988  -9.5988  -9.5987
    -9.3993  -9.3993  -9.3992  -9.3992  -9.1649  -9.1649  -9.1648  -9.1648
    -9.1246  -9.1246  -9.1246  -9.1246  -9.0576  -9.0576  -9.0575  -9.0575
    -9.0456  -9.0456  -9.0456  -9.0456  -9.0455  -9.0455  -9.0455  -9.0455
    -8.8452  -8.8452  -8.8452  -8.8451  -8.7947  -8.7947  -8.7947  -8.7947
    -8.7947  -8.7946  -8.7946  -8.7946  -8.7343  -8.7343  -8.7342  -8.7342
    -8.7342  -8.7341  -8.7341  -8.7341  -8.7162  -8.7162  -8.7161  -8.7161
     2.5135   2.5135   2.5136   2.5136   2.5783   2.5783   2.5784   2.5784
     2.5785   2.5785   2.5785   2.5785   2.5795   2.5795   2.5796   2.5796
     2.8511   2.8511   2.8511   2.8511   2.8512   2.8512   2.8512   2.8512
     3.0581   3.0581   3.0582   3.0582   3.0919   3.0919   3.0920   3.0920
     3.0960   3.0960   3.0961   3.0962   3.1324   3.1324   3.1324   3.1324
     3.1324   3.1325   3.1325   3.1325   3.4408   3.4408   3.4409   3.4409
     3.4738   3.4738   3.4739   3.4739   3.4740   3.4740   3.4740   3.4740
     3.6788   3.6788   3.6788   3.6788   3.8142   3.8142   3.8143   3.8143
     3.9383   3.9383   3.9383   3.9383   3.9383   3.9384   3.9384   3.9384
     4.2386   4.2386   4.2387   4.2387   4.2387   4.2388   4.2388   4.2388
     4.6403   4.6403   4.6404   4.6404   4.7036   4.7036   4.7036   4.7036
     4.7037   4.7037   4.7037   4.7037   4.8411   4.8411   4.8412   4.8412
     4.9431   4.9431   4.9432   4.9433   4.9798   4.9798   4.9799   4.9800
     5.1354   5.1354   5.1355   5.1355   5.1423   5.1423   5.1424   5.1424
     5.1424   5.1425   5.1425   5.1425   5.2580   5.2580   5.2581   5.2581
     5.2742   5.2742   5.2742   5.2742   5.2743   5.2743   5.2743   5.2743
     5.4716   5.4716   5.4717   5.4717   5.8102   5.8102   5.8103   5.8103
     5.8286   5.8286   5.8287   5.8287   5.9284   5.9284   5.9285   5.9285
     6.2455   6.2455   6.2455   6.2455   6.2456   6.2456   6.2456   6.2456
     6.4214   6.4214   6.4215   6.4215   6.5026   6.5026   6.5026   6.5026
     6.5027   6.5027   6.5027   6.5027   6.5215   6.5215   6.5215   6.5216
     6.5435   6.5435   6.5436   6.5436   6.5886   6.5886   6.5887   6.5887
     6.7168   6.7168   6.7169   6.7169   6.7281   6.7281   6.7282   6.7283
     6.7910   6.7910   6.7911   6.7911   6.7912   6.7912   6.7912   6.7912
    10.0815  10.0815  10.0816  10.0816  10.1938  10.1938  10.1938  10.1939
    10.3757  10.3757  10.3758  10.3758  10.3758  10.3758  10.3759  10.3759
    10.4562  10.4563  10.4563  10.4563  10.5630  10.5630  10.5631  10.5631
    10.5631  10.5631  10.5632  10.5632  10.5800  10.5800  10.5801  10.5801
    10.7254  10.7254  10.7255  10.7255  10.7840  10.7840  10.7840  10.7841
    10.8007  10.8007  10.8008  10.8008  10.8009  10.8009  10.8009  10.8009
    10.8800  10.8800  10.8800  10.8800  11.0010  11.0010  11.0011  11.0011
    11.0955  11.0955  11.0956  11.0956  11.0956  11.0957  11.0957  11.0957
    11.1577  11.1577  11.1578  11.1578  11.4196  11.4196  11.4196  11.4196
    11.6440  11.6441  11.6441  11.6442  11.6442

          k =-0.5000-0.5000 0.0000 ( 25848 PWs)   bands (ev):

   -49.0837 -49.0837 -49.0837 -49.0837 -49.0775 -49.0774 -49.0774 -49.0774
   -49.0774 -49.0774 -49.0774 -49.0774 -49.0626 -49.0626 -49.0626 -49.0625
   -49.0620 -49.0619 -49.0619 -49.0619 -49.0471 -49.0470 -49.0470 -49.0470
   -49.0470 -49.0470 -49.0470 -49.0470 -49.0407 -49.0407 -49.0407 -49.0407
   -25.6126 -25.6125 -25.6125 -25.6125 -25.5749 -25.5748 -25.5748 -25.5748
   -25.5748 -25.5748 -25.5747 -25.5747 -25.5006 -25.5006 -25.5006 -25.5006
   -25.5004 -25.5004 -25.5004 -25.5004 -25.4528 -25.4528 -25.4528 -25.4527
   -25.4527 -25.4527 -25.4527 -25.4527 -25.4315 -25.4315 -25.4315 -25.4315
   -25.3674 -25.3674 -25.3674 -25.3674 -25.3674 -25.3674 -25.3674 -25.3673
   -25.3597 -25.3597 -25.3597 -25.3597 -25.3481 -25.3481 -25.3481 -25.3481
   -25.3479 -25.3479 -25.3479 -25.3479 -25.3094 -25.3094 -25.3094 -25.3094
   -25.3071 -25.3071 -25.3071 -25.3071 -25.3071 -25.3071 -25.3071 -25.3071
   -25.2565 -25.2565 -25.2565 -25.2564 -25.2440 -25.2440 -25.2439 -25.2439
   -25.2439 -25.2439 -25.2439 -25.2439 -25.2326 -25.2326 -25.2326 -25.2326
   -25.2324 -25.2324 -25.2324 -25.2324 -25.2160 -25.2160 -25.2159 -25.2159
   -25.2159 -25.2159 -25.2159 -25.2159 -25.1897 -25.1897 -25.1897 -25.1897
    -9.9608  -9.9607  -9.9607  -9.9607  -9.8229  -9.8229  -9.8229  -9.8229
    -9.8229  -9.8229  -9.8229  -9.8229  -9.4958  -9.4958  -9.4958  -9.4958
    -9.4954  -9.4953  -9.4953  -9.4953  -9.1820  -9.1820  -9.1820  -9.1820
    -9.1820  -9.1820  -9.1820  -9.1819  -9.0576  -9.0576  -9.0576  -9.0576
    -9.0134  -9.0134  -9.0134  -9.0134  -8.9749  -8.9749  -8.9749  -8.9749
    -8.9749  -8.9749  -8.9749  -8.9749  -8.8628  -8.8628  -8.8628  -8.8628
    -8.8623  -8.8623  -8.8623  -8.8623  -8.7187  -8.7187  -8.7187  -8.7187
    -8.7187  -8.7186  -8.7186  -8.7186  -8.6490  -8.6490  -8.6490  -8.6490
     2.4759   2.4759   2.4759   2.4759   2.4815   2.4815   2.4815   2.4815
     2.4816   2.4816   2.4816   2.4816   2.5409   2.5409   2.5409   2.5409
     2.5410   2.5410   2.5410   2.5410   2.6713   2.6713   2.6713   2.6713
     2.6713   2.6713   2.6713   2.6713   2.7482   2.7482   2.7482   2.7482
     3.0136   3.0136   3.0136   3.0136   3.3649   3.3649   3.3649   3.3649
     3.3649   3.3649   3.3649   3.3649   3.7341   3.7341   3.7341   3.7341
     3.7346   3.7346   3.7346   3.7346   3.8024   3.8024   3.8024   3.8024
     3.8024   3.8025   3.8025   3.8025   4.1071   4.1072   4.1072   4.1072
     4.2052   4.2052   4.2052   4.2053   4.2053   4.2053   4.2053   4.2053
     4.3588   4.3588   4.3588   4.3588   4.3728   4.3728   4.3728   4.3728
     4.3730   4.3730   4.3730   4.3730   4.9211   4.9211   4.9211   4.9211
     4.9211   4.9211   4.9211   4.9211   4.9338   4.9338   4.9338   4.9338
     4.9587   4.9587   4.9587   4.9587   5.0119   5.0119   5.0119   5.0119
     5.0119   5.0120   5.0120   5.0120   5.1363   5.1363   5.1363   5.1363
     5.1363   5.1363   5.1363   5.1363   5.2756   5.2757   5.2757   5.2757
     5.2757   5.2757   5.2757   5.2757   5.2922   5.2922   5.2922   5.2922
     5.3733   5.3733   5.3733   5.3733   5.7396   5.7396   5.7396   5.7396
     5.7396   5.7396   5.7396   5.7396   6.0275   6.0275   6.0275   6.0275
     6.0355   6.0355   6.0355   6.0355   6.0360   6.0360   6.0360   6.0360
     6.0776   6.0776   6.0776   6.0776   6.0776   6.0776   6.0776   6.0776
     6.5052   6.5052   6.5052   6.5053   6.5053   6.5053   6.5053   6.5053
     6.6717   6.6717   6.6717   6.6717   6.6725   6.6725   6.6725   6.6725
     6.7033   6.7033   6.7033   6.7033   6.8853   6.8853   6.8853   6.8853
     6.8853   6.8854   6.8854   6.8854   6.9116   6.9116   6.9116   6.9116
    10.2330  10.2330  10.2330  10.2330  10.2718  10.2718  10.2718  10.2718
    10.2718  10.2718  10.2718  10.2718  10.4037  10.4037  10.4037  10.4037
    10.4038  10.4038  10.4038  10.4038  10.4994  10.4994  10.4994  10.4994
    10.5794  10.5794  10.5794  10.5794  10.5794  10.5794  10.5794  10.5794
    10.6473  10.6473  10.6474  10.6474  10.6474  10.6474  10.6474  10.6474
    10.7749  10.7750  10.7750  10.7750  10.8562  10.8562  10.8562  10.8562
    10.8563  10.8563  10.8563  10.8563  11.0422  11.0422  11.0422  11.0422
    11.0423  11.0423  11.0423  11.0423  11.1004  11.1004  11.1004  11.1004
    11.1228  11.1228  11.1228  11.1228  11.2768  11.2768  11.2768  11.2768
    11.2768  11.2768  11.2769  11.2769  11.3301

          k =-0.5000-0.5000-0.1980 ( 25864 PWs)   bands (ev):

   -49.0822 -49.0821 -49.0821 -49.0821 -49.0820 -49.0820 -49.0820 -49.0820
   -49.0705 -49.0705 -49.0705 -49.0705 -49.0705 -49.0704 -49.0704 -49.0704
   -49.0541 -49.0540 -49.0540 -49.0540 -49.0540 -49.0540 -49.0540 -49.0539
   -49.0424 -49.0424 -49.0424 -49.0424 -49.0423 -49.0423 -49.0423 -49.0422
   -25.6028 -25.6027 -25.6027 -25.6027 -25.6026 -25.6026 -25.6026 -25.6026
   -25.5366 -25.5366 -25.5366 -25.5366 -25.5366 -25.5366 -25.5366 -25.5365
   -25.4731 -25.4730 -25.4730 -25.4730 -25.4730 -25.4730 -25.4730 -25.4730
   -25.4377 -25.4377 -25.4376 -25.4376 -25.4376 -25.4375 -25.4375 -25.4375
   -25.3645 -25.3645 -25.3645 -25.3645 -25.3645 -25.3644 -25.3644 -25.3644
   -25.3629 -25.3629 -25.3629 -25.3628 -25.3628 -25.3628 -25.3628 -25.3628
   -25.3226 -25.3226 -25.3226 -25.3225 -25.3225 -25.3225 -25.3225 -25.3225
   -25.3071 -25.3071 -25.3071 -25.3071 -25.3070 -25.3070 -25.3070 -25.3070
   -25.2526 -25.2526 -25.2526 -25.2526 -25.2525 -25.2525 -25.2525 -25.2525
   -25.2367 -25.2367 -25.2367 -25.2367 -25.2367 -25.2367 -25.2367 -25.2367
   -25.2287 -25.2287 -25.2287 -25.2287 -25.2287 -25.2287 -25.2287 -25.2286
   -25.1982 -25.1982 -25.1981 -25.1981 -25.1981 -25.1981 -25.1981 -25.1980
    -9.9250  -9.9250  -9.9250  -9.9250  -9.9249  -9.9249  -9.9249  -9.9249
    -9.6715  -9.6715  -9.6715  -9.6715  -9.6715  -9.6715  -9.6715  -9.6715
    -9.3236  -9.3236  -9.3236  -9.3236  -9.3236  -9.3236  -9.3236  -9.3236
    -9.0899  -9.0899  -9.0899  -9.0898  -9.0898  -9.0898  -9.0898  -9.0898
    -9.0036  -9.0036  -9.0036  -9.0036  -9.0035  -9.0035  -9.0035  -9.0035
    -8.9271  -8.9271  -8.9271  -8.9271  -8.9271  -8.9271  -8.9271  -8.9271
    -8.7887  -8.7887  -8.7887  -8.7887  -8.7887  -8.7887  -8.7887  -8.7887
    -8.6678  -8.6678  -8.6678  -8.6678  -8.6677  -8.6677  -8.6677  -8.6677
     2.4772   2.4772   2.4772   2.4772   2.4773   2.4773   2.4773   2.4773
     2.4980   2.4980   2.4980   2.4980   2.4980   2.4980   2.4980   2.4980
     2.6057   2.6057   2.6057   2.6057   2.6057   2.6057   2.6057   2.6058
     2.7231   2.7231   2.7231   2.7231   2.7232   2.7232   2.7232   2.7233
     3.1136   3.1136   3.1136   3.1136   3.1137   3.1137   3.1137   3.1137
     3.6483   3.6483   3.6483   3.6483   3.6483   3.6484   3.6484   3.6484
     3.7320   3.7320   3.7320   3.7320   3.7320   3.7320   3.7320   3.7320
     3.9752   3.9752   3.9752   3.9752   3.9753   3.9753   3.9753   3.9753
     4.1542   4.1542   4.1542   4.1542   4.1542   4.1542   4.1542   4.1542
     4.3127   4.3127   4.3127   4.3127   4.3128   4.3128   4.3128   4.3128
     4.6994   4.6994   4.6994   4.6994   4.6994   4.6994   4.6994   4.6994
     4.9676   4.9676   4.9676   4.9676   4.9677   4.9677   4.9677   4.9677
     4.9906   4.9906   4.9906   4.9906   4.9907   4.9907   4.9907   4.9907
     5.0679   5.0679   5.0679   5.0679   5.0679   5.0679   5.0679   5.0679
     5.2059   5.2060   5.2060   5.2060   5.2060   5.2060   5.2060   5.2060
     5.3418   5.3418   5.3418   5.3418   5.3419   5.3419   5.3419   5.3419
     5.4356   5.4356   5.4356   5.4356   5.4357   5.4357   5.4357   5.4357
     5.8769   5.8769   5.8769   5.8769   5.8769   5.8769   5.8769   5.8769
     6.0142   6.0142   6.0142   6.0142   6.0143   6.0143   6.0143   6.0143
     6.2650   6.2650   6.2650   6.2650   6.2650   6.2650   6.2650   6.2651
     6.3868   6.3868   6.3868   6.3868   6.3868   6.3868   6.3869   6.3869
     6.6656   6.6656   6.6656   6.6656   6.6657   6.6657   6.6657   6.6657
     6.8312   6.8312   6.8312   6.8312   6.8312   6.8312   6.8312   6.8312
     6.8967   6.8967   6.8967   6.8967   6.8968   6.8968   6.8968   6.8969
    10.2401  10.2401  10.2401  10.2401  10.2402  10.2402  10.2402  10.2402
    10.3339  10.3339  10.3339  10.3339  10.3339  10.3339  10.3339  10.3339
    10.4754  10.4754  10.4754  10.4754  10.4754  10.4754  10.4754  10.4754
    10.5416  10.5416  10.5416  10.5416  10.5417  10.5417  10.5417  10.5417
    10.7040  10.7040  10.7040  10.7040  10.7041  10.7041  10.7041  10.7041
    10.7619  10.7619  10.7619  10.7619  10.7619  10.7619  10.7619  10.7619
    10.9555  10.9555  10.9555  10.9555  10.9555  10.9555  10.9555  10.9555
    11.0925  11.0925  11.0926  11.0926  11.0926  11.0926  11.0926  11.0926
    11.1785  11.1785  11.1785  11.1785  11.1785  11.1785  11.1785  11.1785
    11.3273  11.3274  11.3274  11.3274  11.3274

 ------ SPIN DOWN ----------


          k = 0.0000 0.0000 0.0000 ( 25997 PWs)   bands (ev):

   -49.0947 -49.0858 -49.0858 -49.0775 -49.0774 -49.0774 -49.0774 -49.0773
   -49.0773 -49.0772 -49.0772 -49.0647 -49.0640 -49.0605 -49.0604 -49.0602
   -49.0602 -49.0599 -49.0596 -49.0596 -49.0596 -49.0472 -49.0471 -49.0470
   -49.0470 -49.0469 -49.0469 -49.0469 -49.0469 -49.0428 -49.0427 -49.0338
   -25.6285 -25.5866 -25.5865 -25.5865 -25.5865 -25.5806 -25.5805 -25.5805
   -25.5805 -25.5678 -25.5678 -25.5567 -25.5566 -25.5565 -25.5564 -25.5562
   -25.5562 -25.5560 -25.5560 -25.4724 -25.4724 -25.4724 -25.4724 -25.4557
   -25.4557 -25.4557 -25.4557 -25.4215 -25.4214 -25.3739 -25.3738 -25.3735
   -25.3735 -25.3732 -25.3732 -25.3729 -25.3729 -25.3565 -25.3565 -25.3462
   -25.3462 -25.3461 -25.3461 -25.3416 -25.3416 -25.3415 -25.3415 -25.3414
   -25.3414 -25.3414 -25.3414 -25.3329 -25.3329 -25.3194 -25.3194 -25.3194
   -25.3194 -25.3000 -25.3000 -25.3000 -25.3000 -25.2678 -25.2678 -25.2603
   -25.2603 -25.2460 -25.2459 -25.2459 -25.2459 -25.2451 -25.2451 -25.2450
   -25.2450 -25.2445 -25.2445 -25.2444 -25.2444 -25.2356 -25.2356 -25.2222
   -25.2221 -25.2221 -25.2221 -25.2221 -25.2220 -25.2219 -25.2219 -25.2219
   -25.2219 -25.2217 -25.2217 -25.2122 -25.2122 -25.2122 -25.2122 -25.2049
   -10.4615 -10.2763 -10.2763  -9.9120  -9.9120  -9.9119  -9.9119  -9.9107
    -9.9107  -9.9107  -9.9107  -9.8324  -9.8323  -9.3980  -9.3980  -9.2646
    -9.2230  -9.2061  -9.2060  -9.1431  -9.1431  -9.1430  -9.1430  -9.1416
    -9.1416  -9.1414  -9.1414  -9.0910  -9.0910  -9.0910  -9.0910  -9.0837
    -9.0837  -9.0837  -9.0837  -9.0394  -9.0393  -8.8617  -8.8616  -8.8616
    -8.8616  -8.8490  -8.8490  -8.8490  -8.8490  -8.8458  -8.8458  -8.8458
    -8.8458  -8.8324  -8.8324  -8.8274  -8.8274  -8.8273  -8.8273  -8.7335
    -8.6792  -8.6792  -8.6792  -8.6791  -8.6776  -8.6776  -8.6775  -8.6775
     2.7885   2.7885   2.7885   2.7885   2.8021   2.8021   2.8021   2.8022
     2.8557   2.8557   2.8562   2.8562   2.9887   3.0034   3.0034   3.0039
     3.0039   3.0180   3.0180   3.0497   3.0497   3.0497   3.0497   3.0518
     3.0518   3.0523   3.0523   3.0817   3.0817   3.1050   3.1050   3.1050
     3.1051   3.1064   3.1064   3.1064   3.1065   3.1156   3.1156   3.1156
     3.1156   3.1172   3.1172   3.1172   3.1172   3.1491   3.1491   3.1495
     3.1496   3.1915   3.1916   3.3611   3.3611   3.3611   3.3611   3.4028
     3.4028   3.4028   3.4029   3.4176   3.4183   3.5766   3.5766   3.5770
     3.5770   3.6067   3.6067   3.6122   3.6122   3.6126   3.6126   3.9151
     3.9151   3.9151   3.9151   3.9495   4.1884   4.1884   4.1884   4.1884
     4.3071   4.3072   4.3079   4.3080   4.5601   4.5601   4.5610   4.5610
     4.5664   4.5664   4.5664   4.5664   4.9763   5.0136   5.0136   5.0139
     5.0140   5.0140   5.0140   5.0145   5.0145   5.0498   5.0498   5.0499
     5.0499   5.1021   5.1021   5.1021   5.1021   5.1255   5.1255   5.1255
     5.1255   5.1864   5.1864   5.1864   5.1864   5.2652   5.2652   5.2652
     5.2652   5.3616   5.3616   5.3616   5.3616   5.3626   5.3626   5.3635
     5.3635   5.4992   5.4992   5.8301   5.8312   5.8598   5.8598   5.8610
     5.8611   6.0185   6.0185   6.0185   6.0185   6.0890   6.0890   6.1067
     6.1067   6.1372   6.1372   6.1372   6.1372   6.2570   6.2570   6.2570
     6.2571   6.2990   6.2991   6.2991   6.2991   6.3553   6.3553   6.3553
     6.3553   6.4123   6.5552   6.5552   6.5552   6.5552   6.5633   6.5633
     6.5697   6.5698   6.5698   6.5698   6.5715   6.5716   6.5716   6.5716
     6.6525   6.6526   6.6530   6.6531   6.7628   6.7628   6.9426   6.9426
     6.9434   6.9434   7.0324   7.0324   7.0324   7.0324   7.1586   7.1586
     9.4039   9.5059   9.5060   9.7608   9.7613  10.0276  10.0277  10.1409
    10.4356  10.4356  10.4356  10.4356  10.5045  10.5046  10.5046  10.5046
    10.6232  10.6232  10.6232  10.6232  10.6506  10.6506  10.6508  10.6508
    10.6549  10.6549  10.6549  10.6549  10.7756  10.7756  10.7757  10.7757
    10.8314  10.8314  10.8314  10.8314  10.8590  10.8590  10.8590  10.8590
    10.8935  10.8935  10.8935  10.8935  10.9016  10.9016  10.9016  10.9016
    10.9624  10.9625  10.9625  10.9625  11.0154  11.0154  11.0155  11.0155
    11.1147  11.1147  11.2293  11.2293  11.2294  11.2294  11.5084  11.5084
    11.6002  11.6002  11.6161  11.6161  11.6161  11.6162  11.7203  11.7203
    11.7203  11.7203  11.8903  11.8903  11.8904

          k = 0.0000 0.0000-0.1980 ( 25972 PWs)   bands (ev):

   -49.0925 -49.0923 -49.0775 -49.0774 -49.0774 -49.0774 -49.0773 -49.0773
   -49.0772 -49.0772 -49.0760 -49.0760 -49.0605 -49.0604 -49.0602 -49.0602
   -49.0599 -49.0596 -49.0596 -49.0596 -49.0527 -49.0527 -49.0472 -49.0471
   -49.0470 -49.0470 -49.0469 -49.0469 -49.0469 -49.0469 -49.0362 -49.0361
   -25.6135 -25.6134 -25.5840 -25.5840 -25.5839 -25.5839 -25.5838 -25.5838
   -25.5838 -25.5838 -25.5562 -25.5561 -25.5561 -25.5560 -25.5560 -25.5560
   -25.5558 -25.5558 -25.4997 -25.4996 -25.4645 -25.4644 -25.4644 -25.4644
   -25.4644 -25.4644 -25.4643 -25.4643 -25.3735 -25.3734 -25.3734 -25.3733
   -25.3732 -25.3732 -25.3731 -25.3731 -25.3533 -25.3533 -25.3531 -25.3531
   -25.3417 -25.3416 -25.3415 -25.3415 -25.3414 -25.3414 -25.3414 -25.3414
   -25.3384 -25.3383 -25.3379 -25.3379 -25.3378 -25.3378 -25.3099 -25.3099
   -25.3098 -25.3098 -25.3098 -25.3098 -25.3097 -25.3097 -25.2562 -25.2562
   -25.2560 -25.2560 -25.2445 -25.2445 -25.2444 -25.2444 -25.2443 -25.2443
   -25.2443 -25.2443 -25.2380 -25.2380 -25.2379 -25.2379 -25.2223 -25.2221
   -25.2221 -25.2219 -25.2219 -25.2219 -25.2219 -25.2218 -25.2217 -25.2217
   -25.2168 -25.2168 -25.2168 -25.2167 -25.2167 -25.2167 -25.2166 -25.2166
   -10.4135 -10.4133 -10.0718 -10.0718  -9.9114  -9.9113  -9.9113  -9.9113
    -9.9112  -9.9112  -9.9112  -9.9111  -9.5955  -9.5955  -9.2683  -9.2682
    -9.2500  -9.2499  -9.1430  -9.1430  -9.1430  -9.1429  -9.1415  -9.1415
    -9.1414  -9.1414  -9.1342  -9.1342  -9.0874  -9.0874  -9.0874  -9.0874
    -9.0873  -9.0873  -9.0873  -9.0873  -8.9326  -8.9326  -8.8582  -8.8582
    -8.8581  -8.8581  -8.8581  -8.8581  -8.8580  -8.8580  -8.8338  -8.8338
    -8.8338  -8.8337  -8.8337  -8.8337  -8.8337  -8.8337  -8.7601  -8.7600
    -8.6792  -8.6791  -8.6791  -8.6790  -8.6776  -8.6775  -8.6775  -8.6774
     2.7951   2.7951   2.7952   2.7952   2.7952   2.7953   2.7953   2.7953
     2.9073   2.9073   2.9074   2.9074   2.9078   2.9078   2.9079   2.9079
     3.0270   3.0270   3.0271   3.0271   3.0478   3.0479   3.0725   3.0725
     3.0727   3.0727   3.1056   3.1056   3.1057   3.1057   3.1058   3.1058
     3.1058   3.1058   3.1164   3.1164   3.1164   3.1164   3.1164   3.1164
     3.1165   3.1165   3.1219   3.1220   3.1220   3.1221   3.1224   3.1225
     3.1225   3.1225   3.3348   3.3348   3.3795   3.3795   3.3796   3.3796
     3.3797   3.3797   3.3797   3.3797   3.4813   3.4813   3.5958   3.5958
     3.5959   3.5959   3.5962   3.5963   3.5963   3.5963   3.8123   3.8124
     4.0270   4.0270   4.0271   4.0271   4.0271   4.0271   4.0272   4.0272
     4.4133   4.4133   4.4134   4.4134   4.4141   4.4142   4.4142   4.4143
     4.8041   4.8041   4.8041   4.8041   4.8042   4.8042   4.8042   4.8042
     5.0137   5.0137   5.0138   5.0138   5.0142   5.0142   5.0143   5.0143
     5.0775   5.0775   5.0776   5.0777   5.0777   5.0777   5.0778   5.0778
     5.1685   5.1686   5.2357   5.2357   5.2358   5.2358   5.2359   5.2359
     5.2359   5.2359   5.6086   5.6086   5.6087   5.6087   5.6097   5.6097
     5.6098   5.6098   5.6861   5.6861   5.6861   5.6861   5.6861   5.6861
     5.6861   5.6861   5.7298   5.7298   5.9241   5.9241   6.1335   6.1335
     6.1336   6.1336   6.2725   6.2725   6.2725   6.2726   6.2726   6.2726
     6.2727   6.2727   6.3173   6.3174   6.4308   6.4308   6.4308   6.4308
     6.4617   6.4617   6.4618   6.4618   6.4618   6.4618   6.4619   6.4619
     6.5706   6.5706   6.5707   6.5707   6.5708   6.5708   6.5708   6.5708
     6.8192   6.8193   6.8194   6.8194   6.8199   6.8201   6.8201   6.8202
     6.8849   6.8849   6.8849   6.8849   7.1269   7.1269   7.1270   7.1270
     9.4296   9.4297   9.6224   9.6224   9.9043   9.9043  10.1108  10.1109
    10.4918  10.4918  10.4918  10.4918  10.4919  10.4919  10.4919  10.4919
    10.5673  10.5673  10.5674  10.5674  10.5674  10.5674  10.5675  10.5676
    10.7894  10.7894  10.7895  10.7895  10.7896  10.7896  10.7896  10.7896
    10.8102  10.8102  10.8102  10.8102  10.8103  10.8103  10.8103  10.8103
    10.9245  10.9245  10.9246  10.9246  10.9247  10.9247  10.9247  10.9247
    10.9697  10.9697  10.9698  10.9698  10.9698  10.9698  10.9699  10.9700
    11.1442  11.1442  11.1443  11.1443  11.3675  11.3675  11.3675  11.3675
    11.6656  11.6656  11.6657  11.6657  11.6657  11.6657  11.6658  11.6658
    11.7423  11.7423  11.7424  11.7424  11.9276

          k = 0.0000-0.5000 0.0000 ( 25942 PWs)   bands (ev):

   -49.0892 -49.0891 -49.0819 -49.0819 -49.0818 -49.0818 -49.0720 -49.0720
   -49.0719 -49.0718 -49.0718 -49.0717 -49.0717 -49.0717 -49.0677 -49.0677
   -49.0588 -49.0588 -49.0505 -49.0505 -49.0504 -49.0503 -49.0503 -49.0502
   -49.0502 -49.0502 -49.0447 -49.0446 -49.0446 -49.0446 -49.0372 -49.0372
   -25.6197 -25.6197 -25.5811 -25.5811 -25.5811 -25.5810 -25.5770 -25.5770
   -25.5770 -25.5769 -25.5735 -25.5735 -25.5735 -25.5735 -25.4992 -25.4992
   -25.4992 -25.4992 -25.4991 -25.4991 -25.4920 -25.4920 -25.4920 -25.4920
   -25.4399 -25.4399 -25.4170 -25.4170 -25.4170 -25.4170 -25.3948 -25.3947
   -25.3714 -25.3714 -25.3713 -25.3713 -25.3665 -25.3664 -25.3664 -25.3664
   -25.3517 -25.3516 -25.3440 -25.3440 -25.3439 -25.3439 -25.3424 -25.3424
   -25.3423 -25.3423 -25.3346 -25.3346 -25.3313 -25.3313 -25.3313 -25.3313
   -25.3303 -25.3303 -25.2882 -25.2881 -25.2819 -25.2819 -25.2818 -25.2818
   -25.2549 -25.2549 -25.2455 -25.2454 -25.2454 -25.2454 -25.2426 -25.2426
   -25.2425 -25.2425 -25.2392 -25.2392 -25.2391 -25.2391 -25.2372 -25.2372
   -25.2351 -25.2351 -25.2304 -25.2304 -25.2304 -25.2304 -25.2130 -25.2129
   -25.2129 -25.2129 -25.2075 -25.2075 -25.2075 -25.2075 -25.1952 -25.1952
   -10.2266 -10.2266 -10.0760 -10.0760 -10.0759 -10.0759  -9.8236  -9.8236
    -9.5999  -9.5998  -9.5998  -9.5998  -9.5980  -9.5980  -9.5980  -9.5980
    -9.4959  -9.4959  -9.2550  -9.2550  -9.2549  -9.2549  -9.1603  -9.1603
    -9.1059  -9.1058  -9.1058  -9.1058  -9.1033  -9.1033  -9.0498  -9.0498
    -9.0498  -9.0498  -9.0414  -9.0414  -9.0414  -9.0413  -9.0224  -9.0223
    -8.8904  -8.8903  -8.8008  -8.8008  -8.8008  -8.8008  -8.7884  -8.7884
    -8.7884  -8.7883  -8.7723  -8.7723  -8.7722  -8.7722  -8.7374  -8.7374
    -8.7374  -8.7374  -8.7317  -8.7317  -8.7316  -8.7316  -8.6955  -8.6955
     2.5039   2.5039   2.5422   2.5422   2.5423   2.5423   2.5733   2.5733
     2.5734   2.5734   2.5840   2.5840   2.5841   2.5841   2.5994   2.5994
     2.8204   2.8204   2.8204   2.8204   2.8854   2.8854   2.8854   2.8854
     3.0128   3.0128   3.0503   3.0503   3.0773   3.0773   3.0773   3.0773
     3.1042   3.1042   3.1200   3.1200   3.1200   3.1200   3.1435   3.1435
     3.1435   3.1436   3.2788   3.2788   3.2788   3.2788   3.4340   3.4340
     3.4341   3.4341   3.4773   3.4773   3.5585   3.5586   3.5586   3.5586
     3.6999   3.6999   3.6999   3.6999   3.7196   3.7197   3.7332   3.7332
     3.7332   3.7332   3.8915   3.8915   4.1646   4.1646   4.1646   4.1646
     4.2017   4.2017   4.2017   4.2017   4.2451   4.2452   4.2452   4.2452
     4.5707   4.5707   4.6707   4.6707   4.6707   4.6707   4.7322   4.7322
     4.7322   4.7322   4.7667   4.7667   4.7667   4.7667   4.8773   4.8773
     4.9379   4.9379   4.9593   4.9593   4.9594   4.9594   4.9877   4.9877
     4.9878   4.9878   4.9896   4.9896   5.0924   5.0924   5.1096   5.1096
     5.1631   5.1631   5.1632   5.1632   5.2012   5.2012   5.2012   5.2012
     5.2439   5.2439   5.2439   5.2439   5.5020   5.5020   5.5020   5.5020
     5.5802   5.5802   5.5943   5.5943   5.5943   5.5943   5.7870   5.7870
     5.8673   5.8673   5.8674   5.8674   5.9062   5.9062   5.9562   5.9562
     6.1078   6.1078   6.1078   6.1078   6.2664   6.2664   6.2664   6.2664
     6.3647   6.3647   6.4904   6.4904   6.5024   6.5025   6.5025   6.5025
     6.5213   6.5213   6.5214   6.5214   6.5438   6.5438   6.5557   6.5557
     6.6040   6.6040   6.6040   6.6040   6.6272   6.6272   6.6272   6.6272
     6.6580   6.6580   6.6580   6.6580   6.6954   6.6954   6.6954   6.6954
     6.7388   6.7388   6.7680   6.7680   6.8298   6.8299   6.8299   6.8299
    10.0824  10.0824  10.1094  10.1095  10.1095  10.1095  10.3152  10.3152
    10.3306  10.3306  10.3586  10.3586  10.3586  10.3586  10.3990  10.3990
    10.3990  10.3990  10.5380  10.5380  10.5380  10.5380  10.5522  10.5522
    10.5522  10.5523  10.5747  10.5747  10.5820  10.5820  10.5821  10.5821
    10.7126  10.7127  10.7570  10.7570  10.7570  10.7570  10.7812  10.7812
    10.7813  10.7813  10.7958  10.7959  10.8229  10.8229  10.8230  10.8230
    10.8537  10.8537  10.9388  10.9388  10.9388  10.9388  11.0299  11.0299
    11.0880  11.0880  11.0880  11.0880  11.1012  11.1012  11.1012  11.1012
    11.1297  11.1297  11.2582  11.2582  11.2582  11.2582  11.5548  11.5548
    11.6268  11.6269  11.6269  11.6269  11.6797

          k = 0.0000-0.5000-0.1980 ( 25940 PWs)   bands (ev):

   -49.0873 -49.0873 -49.0872 -49.0871 -49.0741 -49.0740 -49.0740 -49.0740
   -49.0720 -49.0720 -49.0719 -49.0718 -49.0718 -49.0717 -49.0717 -49.0717
   -49.0525 -49.0525 -49.0525 -49.0524 -49.0505 -49.0505 -49.0504 -49.0503
   -49.0503 -49.0502 -49.0502 -49.0502 -49.0392 -49.0392 -49.0391 -49.0391
   -25.6080 -25.6079 -25.6078 -25.6078 -25.5791 -25.5791 -25.5790 -25.5790
   -25.5789 -25.5789 -25.5789 -25.5789 -25.5268 -25.5268 -25.5268 -25.5267
   -25.4956 -25.4956 -25.4955 -25.4955 -25.4955 -25.4954 -25.4954 -25.4954
   -25.4317 -25.4317 -25.4317 -25.4317 -25.4022 -25.4022 -25.4021 -25.4021
   -25.3693 -25.3693 -25.3693 -25.3692 -25.3692 -25.3692 -25.3692 -25.3691
   -25.3498 -25.3498 -25.3497 -25.3496 -25.3378 -25.3378 -25.3377 -25.3377
   -25.3364 -25.3363 -25.3363 -25.3363 -25.3363 -25.3363 -25.3362 -25.3362
   -25.3089 -25.3089 -25.3088 -25.3088 -25.2836 -25.2835 -25.2835 -25.2834
   -25.2519 -25.2519 -25.2518 -25.2517 -25.2412 -25.2412 -25.2411 -25.2411
   -25.2410 -25.2410 -25.2410 -25.2410 -25.2398 -25.2398 -25.2397 -25.2396
   -25.2369 -25.2369 -25.2368 -25.2368 -25.2101 -25.2101 -25.2101 -25.2101
   -25.2100 -25.2100 -25.2100 -25.2099 -25.2066 -25.2066 -25.2065 -25.2064
   -10.1869 -10.1869 -10.1868 -10.1868  -9.9232  -9.9232  -9.9232  -9.9231
    -9.5990  -9.5990  -9.5989  -9.5989  -9.5988  -9.5988  -9.5988  -9.5988
    -9.3993  -9.3993  -9.3993  -9.3992  -9.1649  -9.1649  -9.1648  -9.1648
    -9.1247  -9.1247  -9.1246  -9.1246  -9.0576  -9.0576  -9.0576  -9.0575
    -9.0457  -9.0456  -9.0456  -9.0456  -9.0456  -9.0456  -9.0456  -9.0456
    -8.8453  -8.8453  -8.8452  -8.8452  -8.7947  -8.7947  -8.7947  -8.7947
    -8.7947  -8.7947  -8.7947  -8.7947  -8.7343  -8.7343  -8.7343  -8.7343
    -8.7342  -8.7342  -8.7342  -8.7342  -8.7163  -8.7163  -8.7162  -8.7162
     2.5135   2.5135   2.5136   2.5137   2.5784   2.5784   2.5785   2.5785
     2.5786   2.5786   2.5786   2.5786   2.5796   2.5796   2.5797   2.5797
     2.8511   2.8512   2.8512   2.8512   2.8513   2.8513   2.8513   2.8513
     3.0582   3.0582   3.0583   3.0583   3.0920   3.0920   3.0921   3.0921
     3.0961   3.0961   3.0962   3.0962   3.1325   3.1325   3.1325   3.1325
     3.1325   3.1325   3.1325   3.1326   3.4409   3.4409   3.4409   3.4410
     3.4739   3.4739   3.4739   3.4740   3.4740   3.4740   3.4740   3.4740
     3.6788   3.6788   3.6789   3.6789   3.8143   3.8143   3.8144   3.8144
     3.9384   3.9384   3.9384   3.9384   3.9384   3.9384   3.9384   3.9384
     4.2386   4.2386   4.2387   4.2387   4.2388   4.2388   4.2388   4.2388
     4.6404   4.6404   4.6404   4.6404   4.7036   4.7036   4.7036   4.7036
     4.7037   4.7037   4.7037   4.7037   4.8412   4.8412   4.8413   4.8413
     4.9431   4.9431   4.9433   4.9433   4.9798   4.9798   4.9799   4.9800
     5.1354   5.1354   5.1355   5.1355   5.1423   5.1423   5.1424   5.1424
     5.1425   5.1425   5.1425   5.1425   5.2580   5.2580   5.2581   5.2581
     5.2742   5.2742   5.2742   5.2742   5.2743   5.2743   5.2743   5.2743
     5.4716   5.4716   5.4717   5.4717   5.8102   5.8102   5.8103   5.8103
     5.8287   5.8287   5.8287   5.8287   5.9284   5.9284   5.9284   5.9285
     6.2455   6.2455   6.2455   6.2455   6.2456   6.2456   6.2456   6.2456
     6.4214   6.4214   6.4214   6.4215   6.5026   6.5026   6.5026   6.5026
     6.5027   6.5027   6.5027   6.5027   6.5215   6.5215   6.5215   6.5216
     6.5434   6.5434   6.5435   6.5436   6.5886   6.5886   6.5887   6.5887
     6.7168   6.7168   6.7169   6.7169   6.7281   6.7281   6.7282   6.7282
     6.7909   6.7910   6.7910   6.7910   6.7911   6.7911   6.7911   6.7912
    10.0816  10.0816  10.0817  10.0818  10.1939  10.1940  10.1940  10.1940
    10.3758  10.3758  10.3759  10.3759  10.3759  10.3760  10.3760  10.3760
    10.4563  10.4564  10.4564  10.4564  10.5631  10.5632  10.5632  10.5632
    10.5632  10.5632  10.5633  10.5633  10.5801  10.5801  10.5802  10.5802
    10.7255  10.7255  10.7256  10.7257  10.7841  10.7841  10.7841  10.7842
    10.8008  10.8008  10.8009  10.8009  10.8009  10.8010  10.8010  10.8010
    10.8800  10.8801  10.8801  10.8801  11.0010  11.0010  11.0012  11.0012
    11.0955  11.0956  11.0956  11.0957  11.0957  11.0957  11.0957  11.0958
    11.1578  11.1578  11.1579  11.1579  11.4196  11.4196  11.4197  11.4197
    11.6441  11.6442  11.6442  11.6442  11.6442

          k =-0.5000-0.5000 0.0000 ( 25848 PWs)   bands (ev):

   -49.0837 -49.0836 -49.0836 -49.0836 -49.0775 -49.0774 -49.0774 -49.0774
   -49.0773 -49.0773 -49.0773 -49.0773 -49.0625 -49.0625 -49.0625 -49.0625
   -49.0619 -49.0618 -49.0618 -49.0618 -49.0471 -49.0470 -49.0470 -49.0469
   -49.0469 -49.0469 -49.0469 -49.0469 -49.0407 -49.0406 -49.0406 -49.0406
   -25.6125 -25.6125 -25.6125 -25.6125 -25.5748 -25.5748 -25.5747 -25.5747
   -25.5747 -25.5747 -25.5747 -25.5747 -25.5006 -25.5005 -25.5005 -25.5005
   -25.5004 -25.5004 -25.5004 -25.5003 -25.4527 -25.4527 -25.4527 -25.4526
   -25.4526 -25.4526 -25.4526 -25.4526 -25.4314 -25.4314 -25.4314 -25.4314
   -25.3673 -25.3673 -25.3673 -25.3673 -25.3672 -25.3672 -25.3672 -25.3672
   -25.3596 -25.3596 -25.3596 -25.3596 -25.3480 -25.3480 -25.3480 -25.3480
   -25.3478 -25.3478 -25.3478 -25.3478 -25.3093 -25.3093 -25.3093 -25.3093
   -25.3070 -25.3070 -25.3070 -25.3070 -25.3070 -25.3070 -25.3070 -25.3070
   -25.2564 -25.2564 -25.2564 -25.2564 -25.2439 -25.2439 -25.2438 -25.2438
   -25.2438 -25.2438 -25.2438 -25.2438 -25.2325 -25.2325 -25.2325 -25.2325
   -25.2323 -25.2323 -25.2323 -25.2323 -25.2159 -25.2159 -25.2159 -25.2159
   -25.2159 -25.2159 -25.2159 -25.2159 -25.1897 -25.1896 -25.1896 -25.1896
    -9.9608  -9.9608  -9.9608  -9.9608  -9.8229  -9.8229  -9.8229  -9.8229
    -9.8229  -9.8229  -9.8229  -9.8229  -9.4958  -9.4958  -9.4958  -9.4958
    -9.4954  -9.4954  -9.4954  -9.4954  -9.1821  -9.1820  -9.1820  -9.1820
    -9.1820  -9.1820  -9.1820  -9.1820  -9.0576  -9.0576  -9.0576  -9.0576
    -9.0134  -9.0134  -9.0134  -9.0134  -8.9750  -8.9750  -8.9750  -8.9750
    -8.9749  -8.9749  -8.9749  -8.9749  -8.8628  -8.8628  -8.8628  -8.8628
    -8.8624  -8.8624  -8.8624  -8.8624  -8.7187  -8.7187  -8.7187  -8.7187
    -8.7187  -8.7187  -8.7187  -8.7187  -8.6491  -8.6491  -8.6491  -8.6491
     2.4759   2.4760   2.4760   2.4760   2.4816   2.4816   2.4816   2.4816
     2.4816   2.4816   2.4816   2.4816   2.5410   2.5410   2.5410   2.5410
     2.5411   2.5411   2.5411   2.5411   2.6713   2.6713   2.6713   2.6713
     2.6714   2.6714   2.6714   2.6714   2.7482   2.7482   2.7482   2.7482
     3.0137   3.0137   3.0137   3.0137   3.3650   3.3650   3.3650   3.3650
     3.3650   3.3650   3.3650   3.3650   3.7342   3.7342   3.7342   3.7342
     3.7347   3.7347   3.7347   3.7347   3.8025   3.8025   3.8025   3.8025
     3.8025   3.8025   3.8025   3.8025   4.1072   4.1072   4.1072   4.1072
     4.2053   4.2053   4.2053   4.2053   4.2053   4.2053   4.2053   4.2053
     4.3588   4.3588   4.3588   4.3588   4.3728   4.3728   4.3728   4.3728
     4.3730   4.3730   4.3730   4.3730   4.9211   4.9211   4.9211   4.9211
     4.9211   4.9211   4.9211   4.9211   4.9338   4.9338   4.9338   4.9338
     4.9588   4.9588   4.9588   4.9588   5.0119   5.0119   5.0119   5.0119
     5.0120   5.0120   5.0120   5.0120   5.1363   5.1363   5.1363   5.1363
     5.1363   5.1363   5.1363   5.1363   5.2756   5.2756   5.2757   5.2757
     5.2757   5.2757   5.2757   5.2757   5.2922   5.2922   5.2922   5.2922
     5.3732   5.3733   5.3733   5.3733   5.7396   5.7396   5.7396   5.7396
     5.7396   5.7396   5.7396   5.7396   6.0274   6.0275   6.0275   6.0275
     6.0355   6.0355   6.0355   6.0355   6.0360   6.0360   6.0360   6.0360
     6.0776   6.0776   6.0776   6.0776   6.0776   6.0776   6.0776   6.0776
     6.5052   6.5052   6.5052   6.5052   6.5052   6.5053   6.5053   6.5053
     6.6717   6.6717   6.6717   6.6717   6.6724   6.6724   6.6724   6.6724
     6.7033   6.7033   6.7033   6.7033   6.8853   6.8853   6.8853   6.8853
     6.8853   6.8853   6.8853   6.8853   6.9115   6.9115   6.9115   6.9115
    10.2331  10.2331  10.2331  10.2331  10.2719  10.2719  10.2719  10.2719
    10.2719  10.2719  10.2720  10.2720  10.4038  10.4038  10.4038  10.4038
    10.4039  10.4039  10.4039  10.4039  10.4995  10.4995  10.4995  10.4995
    10.5794  10.5795  10.5795  10.5795  10.5795  10.5795  10.5795  10.5795
    10.6474  10.6474  10.6475  10.6475  10.6475  10.6475  10.6475  10.6475
    10.7750  10.7751  10.7751  10.7751  10.8563  10.8563  10.8563  10.8563
    10.8563  10.8563  10.8564  10.8564  11.0423  11.0423  11.0423  11.0423
    11.0424  11.0424  11.0424  11.0424  11.1005  11.1005  11.1005  11.1005
    11.1229  11.1229  11.1229  11.1229  11.2769  11.2769  11.2769  11.2769
    11.2769  11.2769  11.2769  11.2769  11.3302

          k =-0.5000-0.5000-0.1980 ( 25864 PWs)   bands (ev):

   -49.0821 -49.0821 -49.0821 -49.0821 -49.0820 -49.0819 -49.0819 -49.0819
   -49.0705 -49.0704 -49.0704 -49.0704 -49.0704 -49.0704 -49.0704 -49.0704
   -49.0540 -49.0540 -49.0540 -49.0539 -49.0539 -49.0539 -49.0539 -49.0539
   -49.0424 -49.0424 -49.0423 -49.0423 -49.0423 -49.0422 -49.0422 -49.0421
   -25.6027 -25.6027 -25.6027 -25.6027 -25.6026 -25.6026 -25.6026 -25.6025
   -25.5366 -25.5366 -25.5366 -25.5365 -25.5365 -25.5365 -25.5365 -25.5365
   -25.4730 -25.4730 -25.4730 -25.4730 -25.4730 -25.4729 -25.4729 -25.4729
   -25.4376 -25.4376 -25.4376 -25.4376 -25.4375 -25.4375 -25.4375 -25.4374
   -25.3644 -25.3644 -25.3644 -25.3643 -25.3643 -25.3643 -25.3643 -25.3643
   -25.3628 -25.3628 -25.3627 -25.3627 -25.3627 -25.3627 -25.3627 -25.3627
   -25.3225 -25.3225 -25.3225 -25.3225 -25.3224 -25.3224 -25.3224 -25.3224
   -25.3070 -25.3070 -25.3070 -25.3070 -25.3069 -25.3069 -25.3069 -25.3069
   -25.2525 -25.2525 -25.2525 -25.2525 -25.2524 -25.2524 -25.2524 -25.2524
   -25.2366 -25.2366 -25.2366 -25.2366 -25.2366 -25.2366 -25.2366 -25.2366
   -25.2286 -25.2286 -25.2286 -25.2286 -25.2286 -25.2286 -25.2286 -25.2286
   -25.1981 -25.1981 -25.1981 -25.1981 -25.1980 -25.1980 -25.1980 -25.1980
    -9.9250  -9.9250  -9.9250  -9.9250  -9.9249  -9.9249  -9.9249  -9.9249
    -9.6716  -9.6716  -9.6716  -9.6716  -9.6716  -9.6716  -9.6715  -9.6715
    -9.3237  -9.3237  -9.3237  -9.3237  -9.3237  -9.3237  -9.3236  -9.3236
    -9.0899  -9.0899  -9.0899  -9.0899  -9.0898  -9.0898  -9.0898  -9.0898
    -9.0037  -9.0037  -9.0036  -9.0036  -9.0035  -9.0035  -9.0035  -9.0035
    -8.9272  -8.9272  -8.9272  -8.9272  -8.9271  -8.9271  -8.9271  -8.9271
    -8.7888  -8.7888  -8.7888  -8.7888  -8.7888  -8.7888  -8.7888  -8.7888
    -8.6679  -8.6679  -8.6679  -8.6678  -8.6678  -8.6677  -8.6677  -8.6677
     2.4773   2.4773   2.4773   2.4773   2.4774   2.4774   2.4774   2.4774
     2.4980   2.4980   2.4980   2.4981   2.4981   2.4981   2.4981   2.4981
     2.6058   2.6058   2.6058   2.6058   2.6058   2.6058   2.6058   2.6058
     2.7232   2.7232   2.7232   2.7232   2.7233   2.7233   2.7233   2.7233
     3.1137   3.1137   3.1137   3.1137   3.1138   3.1138   3.1138   3.1138
     3.6484   3.6484   3.6484   3.6484   3.6484   3.6484   3.6484   3.6484
     3.7321   3.7321   3.7321   3.7321   3.7321   3.7321   3.7321   3.7321
     3.9753   3.9753   3.9753   3.9753   3.9754   3.9754   3.9754   3.9754
     4.1542   4.1542   4.1543   4.1543   4.1543   4.1543   4.1543   4.1543
     4.3127   4.3127   4.3127   4.3127   4.3128   4.3129   4.3129   4.3129
     4.6994   4.6994   4.6994   4.6994   4.6994   4.6994   4.6994   4.6995
     4.9676   4.9676   4.9676   4.9676   4.9677   4.9677   4.9677   4.9678
     4.9906   4.9906   4.9906   4.9906   4.9907   4.9907   4.9907   4.9908
     5.0679   5.0679   5.0679   5.0679   5.0679   5.0680   5.0680   5.0680
     5.2059   5.2059   5.2059   5.2060   5.2060   5.2060   5.2060   5.2060
     5.3418   5.3418   5.3418   5.3418   5.3419   5.3419   5.3419   5.3419
     5.4356   5.4356   5.4356   5.4356   5.4357   5.4357   5.4357   5.4358
     5.8769   5.8769   5.8769   5.8769   5.8769   5.8769   5.8769   5.8769
     6.0142   6.0142   6.0142   6.0142   6.0143   6.0143   6.0143   6.0143
     6.2650   6.2650   6.2650   6.2650   6.2650   6.2650   6.2650   6.2650
     6.3868   6.3868   6.3868   6.3868   6.3868   6.3868   6.3868   6.3868
     6.6656   6.6656   6.6656   6.6656   6.6657   6.6657   6.6657   6.6657
     6.8312   6.8312   6.8312   6.8312   6.8312   6.8312   6.8312   6.8312
     6.8966   6.8966   6.8966   6.8967   6.8968   6.8968   6.8968   6.8968
    10.2402  10.2402  10.2402  10.2402  10.2403  10.2403  10.2403  10.2403
    10.3340  10.3340  10.3340  10.3340  10.3340  10.3340  10.3340  10.3340
    10.4755  10.4755  10.4755  10.4755  10.4755  10.4755  10.4755  10.4755
    10.5417  10.5417  10.5417  10.5417  10.5418  10.5418  10.5418  10.5418
    10.7041  10.7041  10.7041  10.7041  10.7042  10.7042  10.7042  10.7042
    10.7620  10.7620  10.7620  10.7620  10.7620  10.7620  10.7620  10.7620
    10.9556  10.9556  10.9556  10.9556  10.9556  10.9556  10.9556  10.9556
    11.0926  11.0926  11.0926  11.0926  11.0927  11.0927  11.0927  11.0927
    11.1785  11.1785  11.1786  11.1786  11.1786  11.1786  11.1786  11.1786
    11.3274  11.3274  11.3275  11.3275  11.3275

     the Fermi energy is     8.3518 ev

!    total energy              =   -5786.90631346 Ry
     Harris-Foulkes estimate   =   -5786.90631415 Ry
     estimated scf accuracy    <       0.00000092 Ry

     The total energy is the sum of the following terms:

     one-electron contribution =   -2683.41938562 Ry
     hartree contribution      =    1666.52258652 Ry
     xc contribution           =    -915.73322997 Ry
     ewald contribution        =   -3854.27628439 Ry
     smearing contrib. (-TS)   =      -0.00000000 Ry

     total magnetization       =    -0.00 Bohr mag/cell
     absolute magnetization    =     0.00 Bohr mag/cell

     convergence has been achieved in  14 iterations

     Writing output data file espresso.save\

     init_run     :    356.77s CPU    119.97s WALL (       1 calls)
     electrons    :  54732.20s CPU  16227.93s WALL (       1 calls)

     Called by init_run:
     wfcinit      :    336.41s CPU    106.61s WALL (       1 calls)
     potinit      :      6.08s CPU      1.61s WALL (       1 calls)
     hinit0       :      8.69s CPU      8.70s WALL (       1 calls)

     Called by electrons:
     c_bands      :  48731.34s CPU  14297.45s WALL (      14 calls)
     sum_band     :   5717.03s CPU   1822.69s WALL (      14 calls)
     v_of_rho     :    136.94s CPU     38.56s WALL (      15 calls)
     newd         :    124.11s CPU     62.09s WALL (      15 calls)
     mix_rho      :     21.20s CPU      6.59s WALL (      14 calls)

     Called by c_bands:
     init_us_2    :     92.42s CPU     27.92s WALL (     348 calls)
     cegterg      :  48241.03s CPU  14139.51s WALL (     168 calls)

     Called by sum_band:
     sum_band:bec :    104.20s CPU     35.44s WALL (     168 calls)
     addusdens    :    150.20s CPU     85.19s WALL (      14 calls)

     Called by *egterg:
     h_psi        :  22348.44s CPU   6763.37s WALL (     815 calls)
     s_psi        :   3436.19s CPU    893.32s WALL (     815 calls)
     g_psi        :     53.58s CPU     14.74s WALL (     635 calls)
     cdiaghg      :  13271.34s CPU   3904.29s WALL (     803 calls)

     Called by h_psi:
     h_psi:pot    :  22283.72s CPU   6648.10s WALL (     815 calls)
     h_psi:calbec :   3020.52s CPU    774.08s WALL (     815 calls)
     vloc_psi     :  15818.30s CPU   4982.87s WALL (     815 calls)
     add_vuspsi   :   3444.91s CPU    891.14s WALL (     815 calls)

     General routines
     calbec       :   4290.48s CPU   1105.72s WALL (     983 calls)
     fft          :     13.02s CPU      3.92s WALL (     368 calls)
     ffts         :      1.81s CPU      0.50s WALL (      58 calls)
     fftw         :  11266.20s CPU   3353.53s WALL (  486470 calls)
     interpolate  :      4.66s CPU      1.51s WALL (      30 calls)

     Parallel routines

     PWSCF        :     15h18m CPU      4h32m WALL


   This run was terminated on:   8:16:30   4Jun2021            

=------------------------------------------------------------------------------=
   JOB DONE.
=------------------------------------------------------------------------------=
